# Probe 0 (0.0015 0.0015 0)
# Probe 1 (0.0015 0.0015 0.002)
# Probe 2 (0.0015 0.0015 0.004)
# Probe 3 (0.0015 0.0015 0.006)
# Probe 4 (0.0015 0.0015 0.008)
# Probe 5 (0.0015 0.0015 0.01)
# Probe 6 (0.0015 0.0015 0.012)
# Probe 7 (0.0015 0.0015 0.014)
# Probe 8 (0.0015 0.0015 0.016)
# Probe 9 (0.0015 0.0015 0.018)
# Probe 10 (0.0015 0.0015 0.02)
# Time        0             1             2             3             4             5             6             7             8             9             10           
50            132619        60404.2       19464.6       7817.75       3154.86       1749.96       1312.08       1337.7        1783.09       3166.66       7994.9       
100           156890        91308.2       34524.6       13898.4       5158.06       2418.45       1508.24       1451.23       1932.8        3455.56       8310.14      
150           169638        114166        53511.1       22873.7       8309.97       3496.75       1822.87       1614.58       2111.77       3780.75       8656.64      
200           177327        128904        71518.8       34287.2       12850.3       5114.61       2299.58       1845.06       2323.35       4131.13       9004.03      
250           182594        139136        86062.3       46775.1       18899.6       7423.48       2996.59       2166.27       2573.78       4499.44       9334.44      
300           186496        146767        97487.4       58673.9       26291.1       10568.9       3988.2        2610.69       2873.69       4882.89       9641.36      
350           189530        152721        106618        69143.4       34516.7       14649.3       5363.51       3219.08       3238.03       5282.86       9925.69      
400           191974        157532        114105        78137.8       42884         19643.7       7220.82       4043.32       3687.87       5704.91       10192.6      
450           193999        161527        120385        85880.3       50865.9       25371         9651.12       5143.33       4250.3        6158.85       10449.7      
500           195716        164918        125757        92615.1       58238.5       31521.9       12714.3       6586.35       4960.1        6659.31       10706.6      
550           197199        167851        130429        98543.6       64971.4       37769         16407.5       8440.19       5860.02       7226.29       10974.7      
600           198499        170427        134550        103821        71111.9       43873.4       20646.4       10762.1       6999.92       7885.4        11266.9      
650           199655        172717        138228        108566        76728.9       49709.5       25279.6       13584.1       8433.71       8667.57       11597.7      
700           200694        174777        141547        112871        81892.9       55237         30136.5       16899         10212.5       9607.32       11982.9      
750           201636        176648        144568        116810        86669.4       60461.2       35074.6       20654.4       12374.8       10739.6       12438.7      
800           202499        178362        147344        120445        91116         65406.8       39996.6       24755.2       14931.8       12094.5       12979.7      
850           203297        179947        149916        123825        95283.1       70103.8       44843         29079.8       17855.1       13688.4       13616.4      
900           204040        181424        152317        126991        99209.8       74575.4       49572.5       33502         21074.9       15517.3       14351.8      
950           204736        182808        154571        129970        102923        78834.9       54150         37909.3       24489.8       17552.3       15179.7      
1000          205391        184112        156696        132784        106439        82885.1       58542.9       42212.4       27987         19741.1       16083.9      
1050          206009        185342        158701        135440        109763        86721.6       62722.4       46344.8       31460.6       22015.5       17039.7      
1100          206592        186502        160592        137945        112896        90336.7       66664.2       50259.4       34824         24301.8       18017.3      
1150          207141        187593        162369        140296        115833        93721.7       70350         53923.7       38012.9       26531.8       18986.5      
1200          207654        188614        164031        142493        118572        96869.3       73767.1       57317.3       40984.7       28650.6       19919.9      
1250          208133        189565        165576        144532        121108        99775         76908.7       60429.3       43714.8       30620.2       20796.9      
1300          208575        190443        167004        146412        123439        102438        79774         63257.7       46193.4       32419.5       21604        
1350          208981        191249        168312        148132        125567        104860        82367.5       65807.3       48420.9       34039.5       22334.2      
1400          209352        191987        169505        149698        127496        107047        84697.8       68088.4       50405.7       35481.9       22986.2      
1450          209689        192655        170586        151113        129234        109009        86778.2       70115.9       52161.9       36755.5       23562.6      
1500          209992        193257        171559        152383        130790        110760        88624.7       71908         53707         37872.7       24068.3      
1550          210264        193796        172427        153516        132174        112312        90255         73484.2       55060.1       38847.9       24509.5      
1600          210506        194275        173200        154522        133398        113682        91688.1       74864.8       56240.4       39696         24893        
1650          210720        194699        173882        155409        134477        114885        92942.7       76069.8       57266.9       40431.4       25225.2      
1700          210908        195073        174483        156189        135424        115939        94037.4       77118.3       58157.3       41067.6       25512.3      
1750          211074        195401        175010        156872        136251        116857        94989.7       78028.3       58927.9       41617         25760.1      
1800          211218        195687        175469        157468        136972        117657        95816         78816.3       59593.7       42090.7       25973.5      
1850          211344        195936        175870        157986        137598        118350        96531.6       79497.2       60168.3       42498.7       26157.2      
1900          211454        196153        176217        158436        138140        118950        97150.1       80085.2       60663.3       42849.7       26315.2      
1950          211549        196341        176519        158825        138610        119469        97683.7       80591.9       61089.2       43151.4       26450.9      
2000          211631        196504        176779        159162        139015        119916        98143.6       81028.2       61455.4       43410.6       26567.4      
2050          211702        196644        177004        159453        139365        120302        98539.5       81403.3       61770         43633         26667.4      
2100          211763        196765        177198        159703        139666        120634        98880.3       81725.8       62040.4       43823.8       26753.2      
2150          211816        196870        177365        159918        139926        120920        99172.8       82002.6       62272.2       43987.5       26826.7      
2200          211861        196960        177509        160104        140148        121165        99423.9       82240.3       62471         44127.8       26889.8      
2250          211900        197037        177632        160263        140340        121375        99639.5       82444.1       62641.4       44248.1       26943.8      
2300          211934        197103        177738        160400        140504        121556        99824.3       82618.8       62787.5       44351.1       26990        
2350          211962        197160        177829        160517        140645        121711        99982.8       82768.5       62912.6       44439.3       27029.7      
2400          211987        197209        177908        160618        140766        121844        100119        82896.8       63019.8       44514.8       27063.6      
2450          212008        197251        177974        160704        140869        121958        100235        83006.6       63111.5       44579.4       27092.6      
2500          212026        197286        178032        160778        140958        122055        100334        83100.6       63189.9       44634.6       27117.5      
2550          212042        197317        178080        160841        141033        122138        100419        83180.7       63256.9       44681.9       27138.6      
2600          212055        197343        178122        160894        141098        122209        100492        83249.2       63313.9       44722.2       27156.6      
2650          212066        197365        178157        160939        141152        122268        100552        83306.4       63362         44755.9       27171.9      
2700          212075        197383        178187        160978        141198        122319        100605        83356         63403.4       44785.3       27185        
2750          212083        197400        178213        161011        141238        122363        100650        83398.6       63439         44810.4       27196.2      
2800          212090        197413        178234        161039        141272        122400        100687        83434.2       63468.6       44831.2       27205.7      
2850          212096        197425        178253        161064        141301        122432        100721        83465.4       63494.8       44849.8       27214        
2900          212101        197435        178270        161085        141326        122460        100749        83492         63517         44865.4       27221        
2950          212106        197444        178283        161102        141347        122483        100773        83514.6       63535.9       44878.7       27227        
3000          212109        197451        178295        161117        141365        122503        100792        83533.3       63551.6       44889.7       27231.9      
3050          212112        197457        178305        161130        141380        122520        100810        83549.6       63565.3       44899.4       27236.2      
3100          212115        197462        178313        161141        141394        122534        100825        83564         63577.1       44907.9       27240.1      
3150          212117        197467        178320        161150        141404        122546        100837        83575.2       63586.7       44914.4       27243        
3200          212119        197470        178326        161157        141413        122556        100846        83584.4       63594.3       44919.8       27245.5      
3250          212121        197473        178331        161164        141421        122565        100856        83593.1       63601.6       44925         27247.8      
3300          212122        197476        178336        161170        141429        122573        100864        83601.3       63608.4       44929.9       27249.9      
3350          212123        197479        178339        161175        141434        122579        100871        83607.3       63613.5       44933.3       27251.5      
3400          212125        197481        178343        161179        141440        122585        100877        83612.9       63618.1       44936.7       27253        
3450          212125        197482        178345        161182        141444        122589        100881        83617.1       63621.7       44939.2       27254.1      
3500          212126        197484        178347        161185        141446        122592        100884        83620         63624.1       44941         27254.9      
3550          212127        197485        178349        161187        141450        122596        100888        83623.6       63627.1       44943.1       27255.9      
3600          212127        197485        178350        161189        141451        122598        100890        83625.2       63628.6       44944.2       27256.4      
3650          212127        197486        178352        161191        141454        122600        100893        83628         63631         44945.8       27257.1      
3700          212127        197487        178352        161191        141454        122601        100893        83628.6       63631.4       44946.2       27257.3      
3750          212128        197487        178353        161192        141455        122602        100894        83629.5       63632.2       44946.7       27257.5      
3800          212128        197487        178353        161192        141456        122603        100895        83630.2       63632.7       44947.1       27257.7      
3850          212128        197487        178353        161193        141456        122603        100895        83630.6       63633.1       44947.4       27257.8      
3900          212128        197487        178353        161193        141456        122603        100896        83631         63633.5       44947.7       27258        
3950          212128        197487        178353        161193        141456        122603        100896        83631         63633.5       44947.7       27258        
4000          212128        197487        178353        161193        141456        122603        100896        83631         63633.5       44947.7       27258        
4050          212128        197487        178353        161193        141456        122603        100896        83631         63633.5       44947.7       27258        
4100          212128        197487        178353        161193        141456        122603        100896        83631         63633.5       44947.7       27258        
4150          212128        197487        178353        161193        141456        122603        100896        83631         63633.5       44947.7       27258        
4200          212128        197487        178353        161193        141456        122603        100896        83631         63633.5       44947.7       27258        
4250          212128        197487        178353        161193        141456        122603        100896        83631         63633.5       44947.7       27258        
4300          212128        197487        178353        161193        141456        122603        100896        83631         63633.5       44947.7       27258        
4350          212128        197487        178353        161193        141456        122603        100896        83631         63633.5       44947.7       27258        
4400          212128        197487        178353        161193        141456        122603        100896        83631         63633.5       44947.7       27258        
4450          212128        197487        178353        161193        141456        122603        100896        83631         63633.5       44947.7       27258        
4500          212128        197487        178353        161193        141456        122603        100896        83631         63633.5       44947.7       27258        
4550          212128        197487        178353        161193        141456        122603        100896        83631         63633.5       44947.7       27258        
4600          212128        197487        178353        161193        141456        122603        100896        83631         63633.5       44947.7       27258        
4650          212128        197487        178353        161193        141456        122603        100896        83631         63633.5       44947.7       27258        
4700          212128        197487        178353        161193        141456        122603        100896        83631         63633.5       44947.7       27258        
4750          212128        197487        178353        161193        141456        122603        100896        83631         63633.5       44947.7       27258        
4800          212128        197487        178353        161193        141456        122603        100896        83631         63633.5       44947.7       27258        
4850          212128        197487        178353        161193        141456        122603        100896        83631         63633.5       44947.7       27258        
4900          212128        197487        178353        161193        141456        122603        100896        83631         63633.5       44947.7       27258        
4950          212128        197487        178353        161193        141456        122603        100896        83631         63633.5       44947.7       27258        
5000          212128        197487        178353        161193        141456        122603        100896        83631         63633.5       44947.7       27258        
