# Probe 0 (0.0015 0.0015 0)
# Probe 1 (0.0015 0.0015 0.002)
# Probe 2 (0.0015 0.0015 0.004)
# Probe 3 (0.0015 0.0015 0.006)
# Probe 4 (0.0015 0.0015 0.008)
# Probe 5 (0.0015 0.0015 0.01)
# Probe 6 (0.0015 0.0015 0.012)
# Probe 7 (0.0015 0.0015 0.014)
# Probe 8 (0.0015 0.0015 0.016)
# Probe 9 (0.0015 0.0015 0.018)
# Probe 10 (0.0015 0.0015 0.02)
# Time        0             1             2             3             4             5             6             7             8             9             10           
50            (1.88944e-17 -1.34074e-17 5.81877e-16) (1.89071e-17 -1.55969e-17 5.07923e-15) (-7.07925e-18 -2.94935e-17 1.07645e-14) (-3.50246e-17 -2.09748e-16 1.6456e-14) (1.33451e-16 2.20141e-16 2.06567e-14) (-7.13114e-17 1.0169e-16 2.56141e-14) (3.45231e-16 5.88264e-17 2.99583e-14) (2.10044e-17 5.70871e-17 3.22876e-14) (2.53424e-16 4.5464e-17 3.39185e-14) (-3.14146e-16 -3.06894e-16 3.70237e-14) (-2.96486e-16 2.41317e-17 3.43367e-14)
100           (3.08676e-17 -2.06623e-17 1.0266e-15) (3.27568e-17 -2.6021e-17 9.00307e-15) (-1.35484e-17 -5.22188e-17 1.90363e-14) (-6.59356e-17 -3.67643e-16 2.90869e-14) (2.34161e-16 3.86851e-16 3.64963e-14) (-1.25211e-16 1.75194e-16 4.52798e-14) (6.10493e-16 1.04067e-16 5.29323e-14) (4.19474e-17 9.71625e-17 5.70581e-14) (4.45848e-16 8.49862e-17 5.99286e-14) (-5.54965e-16 -5.41278e-16 6.54118e-14) (-5.22005e-16 4.47734e-17 6.06561e-14)
150           (-4.94379e-16 3.45239e-16 -1.68307e-14) (-5.0166e-16 4.30397e-16 -1.47315e-13) (2.20269e-16 9.08827e-16 -3.11779e-13) (1.09293e-15 6.04054e-15 -4.75993e-13) (-3.86338e-15 -6.33909e-15 -5.9672e-13) (2.02672e-15 -2.86069e-15 -7.39899e-13) (-9.9673e-15 -1.69145e-15 -8.64232e-13) (-6.74974e-16 -1.6066e-15 -9.30988e-13) (-7.26099e-15 -1.37102e-15 -9.77375e-13) (9.02718e-15 8.8504e-15 -1.06646e-12) (8.49639e-15 -7.12977e-16 -9.8856e-13)
200           (-2.61633e-17 1.89416e-17 -9.29118e-16) (-2.93033e-17 2.58647e-17 -8.14856e-15) (1.19557e-17 4.87317e-17 -1.72458e-14) (6.38225e-17 3.34622e-16 -2.63518e-14) (-2.1511e-16 -3.49032e-16 -3.30688e-14) (1.12775e-16 -1.6111e-16 -4.10321e-14) (-5.51808e-16 -9.70961e-17 -4.79604e-14) (-3.48887e-17 -9.00502e-17 -5.1707e-14) (-4.00947e-16 -7.47966e-17 -5.43168e-14) (5.0164e-16 4.91124e-16 -5.92907e-14) (4.72182e-16 -3.99019e-17 -5.49667e-14)
250           (-3.95377e-17 2.93011e-17 -1.30688e-15) (-3.67573e-17 3.45212e-17 -1.13914e-14) (1.57829e-17 6.94051e-17 -2.41043e-14) (8.32829e-17 4.63666e-16 -3.68194e-14) (-2.99972e-16 -4.90811e-16 -4.61836e-14) (1.57708e-16 -2.2189e-16 -5.72926e-14) (-7.71999e-16 -1.30108e-16 -6.69546e-14) (-5.53377e-17 -1.24917e-16 -7.21607e-14) (-5.63809e-16 -1.07366e-16 -7.57989e-14) (7.00542e-16 6.85417e-16 -8.27253e-14) (6.57816e-16 -5.55273e-17 -7.6707e-14)
300           (-5.68612e-16 3.97073e-16 -1.92417e-14) (-5.74364e-16 4.89402e-16 -1.6842e-13) (2.49961e-16 1.03383e-15 -3.56077e-13) (1.24587e-15 6.89232e-15 -5.42851e-13) (-4.40133e-15 -7.21521e-15 -6.79302e-13) (2.30432e-15 -3.24932e-15 -8.4066e-13) (-1.13054e-14 -1.92072e-15 -9.80037e-13) (-7.7193e-16 -1.82655e-15 -1.05387e-12) (-8.2098e-15 -1.55266e-15 -1.10484e-12) (1.01963e-14 9.99539e-15 -1.20443e-12) (9.59277e-15 -8.06496e-16 -1.11607e-12)
350           (-2.94938e-17 2.08186e-17 -1.0537e-15) (-2.95266e-17 2.44756e-17 -9.22494e-15) (1.54062e-17 5.56548e-17 -1.95202e-14) (6.89019e-17 3.76772e-16 -2.98304e-14) (-2.39398e-16 -3.98822e-16 -3.74306e-14) (1.29931e-16 -1.78693e-16 -4.64555e-14) (-6.26469e-16 -1.04587e-16 -5.43057e-14) (-4.32277e-17 -9.90848e-17 -5.85434e-14) (-4.54663e-16 -8.69067e-17 -6.14976e-14) (5.69185e-16 5.58278e-16 -6.71254e-14) (5.34304e-16 -4.52594e-17 -6.22324e-14)
400           (-2.11469e-16 1.50578e-16 -7.14338e-15) (-2.12114e-16 1.83888e-16 -6.25134e-14) (9.18158e-17 3.84793e-16 -1.32288e-13) (4.63038e-16 2.56414e-15 -2.01976e-13) (-1.63748e-15 -2.69066e-15 -2.53207e-13) (8.62186e-16 -1.21436e-15 -3.1397e-13) (-4.22963e-15 -7.19622e-16 -3.66728e-13) (-2.84532e-16 -6.83334e-16 -3.95046e-13) (-3.08303e-15 -5.8275e-16 -4.14742e-13) (3.83077e-15 3.75619e-15 -4.52537e-13) (3.60713e-15 -3.02173e-16 -4.1948e-13)
450           (-1.1973e-17 7.11082e-18 -3.95497e-16) (-1.21261e-17 1.1798e-17 -3.46079e-15) (6.78086e-18 1.91305e-17 -7.31398e-15) (2.43019e-17 1.43655e-16 -1.11823e-14) (-9.05184e-17 -1.47473e-16 -1.40315e-14) (4.82447e-17 -6.76249e-17 -1.74179e-14) (-2.34346e-16 -4.16054e-17 -2.03511e-14) (-1.54583e-17 -3.79939e-17 -2.19462e-14) (-1.7171e-16 -3.12269e-17 -2.30464e-14) (2.13375e-16 2.08203e-16 -2.51599e-14) (2.01229e-16 -1.9049e-17 -2.33311e-14)
500           (4.14932e-17 -2.96483e-17 1.42935e-15) (4.16199e-17 -3.64439e-17 1.2543e-14) (-1.56488e-17 -7.81892e-17 2.65562e-14) (-9.38487e-17 -5.13193e-16 4.05783e-14) (3.30992e-16 5.41241e-16 5.09065e-14) (-1.75224e-16 2.44272e-16 6.31698e-14) (8.52112e-16 1.45547e-16 7.38412e-14) (6.19631e-17 1.40494e-16 7.96085e-14) (6.21091e-16 1.16418e-16 8.36267e-14) (-7.71996e-16 -7.58118e-16 9.12788e-14) (-7.25522e-16 6.04206e-17 8.46292e-14)
550           (-2.94589e-17 1.91009e-17 -9.78038e-16) (-2.96433e-17 2.44269e-17 -8.56839e-15) (1.2159e-17 5.35766e-17 -1.81022e-14) (6.26064e-17 3.5167e-16 -2.75469e-14) (-2.25347e-16 -3.61192e-16 -3.43803e-14) (1.16402e-16 -1.63396e-16 -4.24151e-14) (-5.67295e-16 -9.70047e-17 -4.93121e-14) (-3.99144e-17 -9.49092e-17 -5.28706e-14) (-4.14414e-16 -7.91731e-17 -5.53126e-14) (5.10032e-16 5.02574e-16 -6.02123e-14) (4.80352e-16 -4.16318e-17 -5.57777e-14)
600           (-6.80016e-17 5.04615e-17 -2.42814e-15) (-7.11309e-17 6.08721e-17 -2.13078e-14) (3.57686e-17 1.2853e-16 -4.50951e-14) (1.5774e-16 8.7277e-16 -6.88782e-14) (-5.55326e-16 -9.16141e-16 -8.63763e-14) (2.94892e-16 -4.16164e-16 -1.07143e-13) (-1.44357e-15 -2.43055e-16 -1.25201e-13) (-9.71607e-17 -2.34236e-16 -1.34933e-13) (-1.05332e-15 -1.962e-16 -1.41682e-13) (1.30994e-15 1.28422e-15 -1.54632e-13) (1.23191e-15 -1.04084e-16 -1.43339e-13)
650           (-1.43799e-15 1.00623e-15 -4.85863e-14) (-1.43092e-15 1.24407e-15 -4.19847e-13) (6.2262e-16 2.40996e-15 -8.57816e-13) (2.62986e-15 1.58175e-14 -1.24208e-12) (-9.69661e-15 -1.54519e-14 -1.45396e-12) (4.66169e-15 -6.5794e-15 -1.67116e-12) (-2.08822e-14 -3.6194e-15 -1.80665e-12) (-1.69875e-15 -3.53197e-15 -1.80624e-12) (-1.34232e-14 -2.45872e-15 -1.78377e-12) (1.58678e-14 1.55311e-14 -1.86753e-12) (1.46396e-14 -1.23182e-15 -1.70372e-12)
700           (-5.51646e-17 3.97423e-17 -1.82009e-15) (-5.22168e-17 4.82584e-17 -1.59115e-14) (2.25328e-17 1.00443e-16 -3.36963e-14) (1.16402e-16 6.53865e-16 -5.14796e-14) (-4.19514e-16 -6.85245e-16 -6.4597e-14) (2.1877e-16 -3.07087e-16 -8.01544e-14) (-1.07952e-15 -1.83897e-16 -9.37064e-14) (-7.44044e-17 -1.75208e-16 -1.01029e-13) (-7.89518e-16 -1.47646e-16 -1.06136e-13) (9.81901e-16 9.61274e-16 -1.15855e-13) (9.21705e-16 -7.83911e-17 -1.07409e-13)
750           (-6.59036e-16 4.64905e-16 -2.24201e-14) (-6.67864e-16 5.74513e-16 -1.9566e-13) (2.91408e-16 1.18502e-15 -4.10577e-13) (1.39666e-15 7.86389e-15 -6.19011e-13) (-4.9791e-15 -8.10949e-15 -7.63706e-13) (2.55934e-15 -3.61226e-15 -9.30774e-13) (-1.23355e-14 -2.10276e-15 -1.06874e-12) (-8.74178e-16 -2.01078e-15 -1.13298e-12) (-8.75285e-15 -1.64303e-15 -1.17433e-12) (1.07665e-14 1.05538e-14 -1.27057e-12) (1.00923e-14 -8.46566e-16 -1.17399e-12)
800           (-3.12425e-17 2.28654e-17 -1.13382e-15) (-3.32394e-17 2.94752e-17 -9.92728e-15) (1.2473e-17 6.22924e-17 -2.10126e-14) (7.45938e-17 4.07525e-16 -3.21e-14) (-2.60043e-16 -4.31622e-16 -4.02693e-14) (1.37216e-16 -1.9273e-16 -4.99846e-14) (-6.74819e-16 -1.14355e-16 -5.84279e-14) (-4.69612e-17 -1.09136e-16 -6.29879e-14) (-4.89373e-16 -9.33616e-17 -6.61702e-14) (6.12383e-16 6.01628e-16 -7.22195e-14) (5.77672e-16 -4.85742e-17 -6.69677e-14)
850           (-4.16525e-17 2.96638e-17 -1.44913e-15) (-4.3526e-17 3.81606e-17 -1.26637e-14) (1.75051e-17 7.68171e-17 -2.67782e-14) (9.5223e-17 5.18709e-16 -4.08666e-14) (-3.29634e-16 -5.4615e-16 -5.12013e-14) (1.75224e-16 -2.46178e-16 -6.34473e-14) (-8.56671e-16 -1.43984e-16 -7.40701e-14) (-6.06999e-17 -1.37205e-16 -7.9755e-14) (-6.24381e-16 -1.19522e-16 -8.37095e-14) (7.70765e-16 7.56711e-16 -9.13063e-14) (7.27081e-16 -6.10295e-17 -8.46335e-14)
900           (5.18547e-17 -3.6743e-17 1.77187e-15) (5.0656e-17 -4.68393e-17 1.5509e-14) (-2.56602e-17 -9.35056e-17 3.27913e-14) (-1.11215e-16 -6.33219e-16 4.99938e-14) (4.04212e-16 6.6441e-16 6.25377e-14) (-2.11841e-16 2.98253e-16 7.7389e-14) (1.04104e-15 1.7351e-16 9.0215e-14) (7.14676e-17 1.66867e-16 9.69803e-14) (7.52948e-16 1.42421e-16 1.0166e-13) (-9.35396e-16 -9.2304e-16 1.10825e-13) (-8.83161e-16 7.30496e-17 1.02691e-13)
950           (4.26757e-16 -2.96822e-16 1.45106e-14) (4.33539e-16 -3.7293e-16 1.26728e-13) (-1.88762e-16 -7.73721e-16 2.66579e-13) (-9.17216e-16 -5.1227e-15 4.03352e-13) (3.24824e-15 5.31073e-15 4.99942e-13) (-1.68309e-15 2.37356e-15 6.12379e-13) (8.15096e-15 1.3877e-15 7.06678e-13) (5.70563e-16 1.32522e-15 7.52728e-13) (5.8327e-15 1.09998e-15 7.83175e-13) (-7.19815e-15 -7.05451e-15 8.49493e-13) (-6.75565e-15 5.64152e-16 7.85674e-13)
1000          (1.90853e-17 -1.54565e-17 7.52796e-16) (1.97566e-17 -1.92541e-17 6.58992e-15) (-8.67549e-18 -3.84937e-17 1.3943e-14) (-4.87286e-17 -2.72029e-16 2.13168e-14) (1.71915e-16 2.86232e-16 2.67481e-14) (-9.17861e-17 1.30091e-16 3.31921e-14) (4.47708e-16 7.14898e-17 3.87992e-14) (2.96799e-17 7.31696e-17 4.18356e-14) (3.27696e-16 6.40083e-17 4.3949e-14) (-4.06121e-16 -4.02116e-16 4.79672e-14) (-3.80102e-16 3.10849e-17 4.44727e-14)
1050          (-1.07852e-17 8.64256e-18 -4.44104e-16) (-1.52971e-17 1.02231e-17 -3.91873e-15) (3.80062e-18 2.11791e-17 -8.28099e-15) (2.6335e-17 1.58195e-16 -1.26527e-14) (-1.02037e-16 -1.6846e-16 -1.58629e-14) (5.36224e-17 -7.32196e-17 -1.96891e-14) (-2.67199e-16 -4.52902e-17 -2.30113e-14) (-1.7677e-17 -4.33547e-17 -2.48123e-14) (-1.94416e-16 -3.4729e-17 -2.60561e-14) (2.413e-16 2.36083e-16 -2.84491e-14) (2.27096e-16 -1.91009e-17 -2.63737e-14)
1100          (7.26711e-17 -5.04666e-17 2.42404e-15) (7.12992e-17 -6.38587e-17 2.11825e-14) (-3.1041e-17 -1.30405e-16 4.48463e-14) (-1.61016e-16 -8.67709e-16 6.8521e-14) (5.55605e-16 9.14231e-16 8.59698e-14) (-2.90224e-16 4.11307e-16 1.06691e-13) (1.43658e-15 2.47753e-16 1.24724e-13) (1.00112e-16 2.29176e-16 1.34456e-13) (1.05098e-15 1.962e-16 1.41235e-13) (-1.30444e-15 -1.28219e-15 1.54163e-13) (-1.23169e-15 1.00807e-16 1.42918e-13)
1150          (-6.74837e-16 4.73766e-16 -2.28825e-14) (-6.73322e-16 5.89522e-16 -1.97681e-13) (2.93165e-16 1.13321e-15 -4.0375e-13) (1.23378e-15 7.43962e-15 -5.84129e-13) (-4.55608e-15 -7.25599e-15 -6.82903e-13) (2.1864e-15 -3.08667e-15 -7.83641e-13) (-9.77486e-15 -1.69541e-15 -8.45596e-13) (-7.9822e-16 -1.65506e-15 -8.43729e-13) (-6.26311e-15 -1.1436e-15 -8.31769e-13) (7.39239e-15 7.23485e-15 -8.69731e-13) (6.81488e-15 -5.74335e-16 -7.93058e-13)
1200          (-2.56583e-17 1.57841e-17 -8.49935e-16) (-2.58319e-17 2.08136e-17 -7.44049e-15) (1.02508e-17 4.65239e-17 -1.57472e-14) (5.39501e-17 3.03753e-16 -2.40702e-14) (-1.94294e-16 -3.17774e-16 -3.01918e-14) (1.02366e-16 -1.43988e-16 -3.74557e-14) (-5.07971e-16 -8.51956e-17 -4.37885e-14) (-3.46778e-17 -8.15325e-17 -4.72036e-14) (-3.67797e-16 -6.93733e-17 -4.95881e-14) (4.5629e-16 4.50879e-16 -5.41242e-14) (4.30113e-16 -3.79892e-17 -5.01818e-14)
1250          (-2.60218e-16 1.83574e-16 -8.84714e-15) (-2.63842e-16 2.27255e-16 -7.74444e-14) (1.16055e-16 4.80368e-16 -1.63936e-13) (5.77203e-16 3.17968e-15 -2.50402e-13) (-2.03145e-15 -3.33587e-15 -3.14098e-13) (1.06396e-15 -1.50583e-15 -3.89695e-13) (-5.25333e-15 -8.94802e-16 -4.55458e-13) (-3.50646e-16 -8.48086e-16 -4.90917e-13) (-3.83221e-15 -7.23423e-16 -5.15617e-13) (4.76255e-15 4.67386e-15 -5.62765e-13) (4.48481e-15 -3.74895e-16 -5.21708e-13)
1300          (-1.24589e-17 8.83458e-18 -4.95412e-16) (-1.72985e-17 1.22961e-17 -4.28162e-15) (3.50088e-18 2.46314e-17 -9.09314e-15) (3.13657e-17 1.78662e-16 -1.38954e-14) (-1.14182e-16 -1.85477e-16 -1.74358e-14) (6.08888e-17 -8.31125e-17 -2.16407e-14) (-2.91456e-16 -4.85864e-17 -2.52955e-14) (-1.93807e-17 -4.54345e-17 -2.72725e-14) (-2.16683e-16 -3.99007e-17 -2.86372e-14) (2.62308e-16 2.56966e-16 -3.12635e-14) (2.4982e-16 -2.25483e-17 -2.89807e-14)
1350          (-1.05869e-16 7.77354e-17 -3.72818e-15) (-1.12775e-16 9.54122e-17 -3.26608e-14) (4.54326e-17 1.99683e-16 -6.91521e-14) (2.41459e-16 1.34068e-15 -1.05643e-13) (-8.60435e-16 -1.40848e-15 -1.32551e-13) (4.49509e-16 -6.35059e-16 -1.64491e-13) (-2.21926e-15 -3.76631e-16 -1.92299e-13) (-1.47641e-16 -3.54408e-16 -2.07303e-13) (-1.61562e-15 -3.05505e-16 -2.17762e-13) (2.01255e-15 1.97449e-15 -2.37701e-13) (1.89474e-15 -1.58019e-16 -2.20375e-13)
1400          (-2.73729e-14 1.98241e-13 -1.4568e-12) (-2.61034e-14 7.77148e-14 -8.85429e-12) (9.40508e-15 1.6602e-14 -1.01668e-11) (3.76533e-15 1.07857e-13 -8.32026e-12) (-4.44434e-14 -5.88323e-14 -5.64224e-12) (1.1776e-14 -1.7235e-14 -3.90928e-12) (-3.0611e-14 -5.9734e-15 -2.6537e-12) (-3.74934e-15 -5.55313e-15 -1.7276e-12) (-9.50632e-15 -1.46529e-15 -1.1899e-12) (8.31521e-15 8.06261e-15 -9.64279e-13) (6.80016e-15 -5.74482e-16 -7.95637e-13)
1450          (-9.2119e-17 6.59199e-17 -3.20803e-15) (-9.88485e-17 8.15656e-17 -2.80891e-14) (4.13077e-17 1.74863e-16 -5.94786e-14) (2.08343e-16 1.15363e-15 -9.08565e-14) (-7.38725e-16 -1.21089e-15 -1.13989e-13) (3.88897e-16 -5.44711e-16 -1.41472e-13) (-1.90998e-15 -3.24428e-16 -1.65384e-13) (-1.30089e-16 -3.08645e-16 -1.78301e-13) (-1.39146e-15 -2.61948e-16 -1.87286e-13) (1.73287e-15 1.69525e-15 -2.04445e-13) (1.62743e-15 -1.37032e-16 -1.89535e-13)
1500          (-3.33127e-16 2.36127e-16 -1.12473e-14) (-3.24137e-16 2.91327e-16 -9.51425e-14) (1.40509e-16 4.63466e-16 -1.8059e-13) (4.04062e-16 2.98644e-15 -2.33393e-13) (-1.67422e-15 -2.51753e-15 -2.36834e-13) (6.68464e-16 -9.50768e-16 -2.33171e-13) (-2.50149e-15 -4.54192e-16 -2.15645e-13) (-2.56969e-16 -4.47935e-16 -1.85285e-13) (-1.24229e-15 -2.11633e-16 -1.61077e-13) (1.32061e-15 1.29066e-15 -1.54313e-13) (1.1659e-15 -9.73169e-17 -1.35964e-13)
1550          (3.56819e-14 -7.23556e-14 9.33006e-13) (2.17978e-14 -5.29014e-14 5.82425e-12) (-5.87667e-15 -1.05846e-14 6.62689e-12) (-2.09626e-15 -6.8935e-14 5.32228e-12) (2.78236e-14 3.6435e-14 3.50617e-12) (-7.05979e-15 1.03542e-14 2.32568e-12) (1.69905e-14 3.38786e-15 1.48154e-12) (2.1834e-15 3.1252e-15 8.78807e-13) (4.35406e-15 6.2391e-16 5.34439e-13) (-3.28137e-15 -3.16456e-15 3.78699e-13) (-2.46775e-15 2.08813e-16 2.91636e-13)
1600          (5.42485e-17 -4.00359e-17 1.92509e-15) (5.44408e-17 -4.99812e-17 1.68607e-14) (-2.41161e-17 -1.04412e-16 3.57035e-14) (-1.24888e-16 -6.92184e-16 5.45323e-14) (4.42379e-16 7.27328e-16 6.84211e-14) (-2.32459e-16 3.27574e-16 8.49178e-14) (1.14373e-15 1.96184e-16 9.92713e-14) (7.65032e-17 1.83915e-16 1.07024e-13) (8.33186e-16 1.5457e-16 1.12411e-13) (-1.03933e-15 -1.01989e-15 1.22719e-13) (-9.80305e-16 8.01447e-17 1.13783e-13)
1650          (7.57745e-16 -5.29412e-16 2.56418e-14) (7.63319e-16 -6.60612e-16 2.23521e-13) (-3.29919e-16 -1.34483e-15 4.67704e-13) (-1.5686e-15 -8.92198e-15 7.02057e-13) (5.62963e-15 9.15008e-15 8.61362e-13) (-2.87336e-15 4.05119e-15 1.04341e-12) (1.37458e-14 2.34737e-15 1.19073e-12) (9.87268e-16 2.24863e-15 1.25493e-12) (9.65206e-15 1.81131e-15 1.29461e-12) (-1.18326e-14 -1.15929e-14 1.39629e-12) (-1.10731e-14 9.28431e-16 1.28858e-12)
1700          (3.48681e-17 -2.44598e-17 1.25553e-15) (3.95689e-17 -3.0902e-17 1.09953e-14) (-1.57672e-17 -6.74797e-17 2.32747e-14) (-7.99713e-17 -4.48052e-16 3.55621e-14) (2.87986e-16 4.72357e-16 4.46264e-14) (-1.49208e-16 2.15122e-16 5.53838e-14) (7.44417e-16 1.26796e-16 6.4739e-14) (5.36016e-17 1.21416e-16 6.97984e-14) (5.46461e-16 1.06847e-16 7.33147e-14) (-6.76884e-16 -6.67752e-16 8.00385e-14) (-6.38404e-16 5.37769e-17 7.41999e-14)
1750          (-2.86864e-16 2.02953e-16 -9.83837e-15) (-2.94877e-16 2.51685e-16 -8.61088e-14) (1.26984e-16 5.31926e-16 -1.82122e-13) (6.35107e-16 3.52698e-15 -2.77794e-13) (-2.25348e-15 -3.69528e-15 -3.47854e-13) (1.18138e-15 -1.66543e-15 -4.30807e-13) (-5.79505e-15 -9.85356e-16 -5.02594e-13) (-3.93819e-16 -9.382e-16 -5.40817e-13) (-4.21904e-15 -7.99718e-16 -5.67264e-13) (5.23815e-15 5.13565e-15 -6.18612e-13) (4.92906e-15 -4.13057e-16 -5.73293e-13)
1800          (-1.42215e-17 1.05662e-17 -5.4365e-16) (-1.87461e-17 1.091e-17 -4.73882e-15) (5.36372e-18 2.93342e-17 -1.00296e-14) (3.47089e-17 1.94292e-16 -1.5311e-14) (-1.24743e-16 -2.02998e-16 -1.92085e-14) (6.59355e-17 -9.33459e-17 -2.38338e-14) (-3.19385e-16 -5.0656e-17 -2.7865e-14) (-2.08684e-17 -5.22155e-17 -3.00472e-14) (-2.34086e-16 -4.35761e-17 -3.15582e-14) (2.94561e-16 2.87468e-16 -3.44421e-14) (2.72374e-16 -2.42877e-17 -3.19237e-14)
1850          (2.22406e-17 -1.26277e-17 7.55641e-16) (2.2553e-17 -2.23609e-17 6.60843e-15) (-1.0238e-17 -4.16523e-17 1.3992e-14) (-4.85879e-17 -2.72198e-16 2.13823e-14) (1.719e-16 2.87762e-16 2.682e-14) (-9.03656e-17 1.28216e-16 3.3282e-14) (4.49019e-16 7.44252e-17 3.89073e-14) (3.09161e-17 7.26716e-17 4.19474e-14) (3.24884e-16 6.41378e-17 4.40595e-14) (-4.0609e-16 -3.99165e-16 4.80999e-14) (-3.83709e-16 3.43477e-17 4.45888e-14)
1900          (-2.77539e-17 2.06607e-17 -9.49525e-16) (-3.07423e-17 2.60055e-17 -8.26792e-15) (1.3689e-17 5.01685e-17 -1.74786e-14) (6.24643e-17 3.40134e-16 -2.67057e-14) (-2.1667e-16 -3.55658e-16 -3.35182e-14) (1.14511e-16 -1.59616e-16 -4.15915e-14) (-5.5895e-16 -9.3568e-17 -4.86219e-14) (-3.83357e-17 -9.50323e-17 -5.24054e-14) (-4.07841e-16 -7.64846e-17 -5.50398e-14) (5.06894e-16 5.01185e-16 -6.00768e-14) (4.80057e-16 -3.83702e-17 -5.57041e-14)
1950          (-1.61144e-16 1.07919e-16 -5.39558e-15) (-1.63066e-16 1.37094e-16 -4.72295e-14) (6.6437e-17 2.88316e-16 -9.99712e-14) (3.48844e-16 1.93465e-15 -1.52681e-13) (-1.23851e-15 -2.03338e-15 -1.91483e-13) (6.50677e-16 -9.19276e-16 -2.37525e-13) (-3.19962e-15 -5.43462e-16 -2.77557e-13) (-2.15296e-16 -5.16954e-16 -2.99115e-13) (-2.33535e-15 -4.39064e-16 -3.14116e-13) (2.90249e-15 2.84387e-15 -3.42815e-13) (2.73077e-15 -2.29004e-16 -3.17786e-13)
2000          (-8.7999e-18 8.35929e-18 -2.98321e-16) (-1.02337e-17 7.11233e-18 -2.61268e-15) (4.85756e-18 1.20388e-17 -5.54641e-15) (1.90804e-17 1.05994e-16 -8.46909e-15) (-6.92175e-17 -1.14319e-16 -1.06231e-14) (3.64623e-17 -5.06366e-17 -1.31847e-14) (-1.75415e-16 -3.13783e-17 -1.54191e-14) (-1.23147e-17 -2.93187e-17 -1.66179e-14) (-1.28249e-16 -2.60038e-17 -1.74662e-14) (1.59785e-16 1.62876e-16 -1.90532e-14) (1.50922e-16 -1.35654e-17 -1.76615e-14)
2050          (1.03926e-17 -8.81397e-18 3.78493e-16) (1.37342e-17 -8.83617e-18 3.31217e-15) (-5.04959e-18 -1.92537e-17 7.00387e-15) (-2.39878e-17 -1.32048e-16 1.07071e-14) (8.50209e-17 1.40704e-16 1.34184e-14) (-4.37165e-17 6.41851e-17 1.66553e-14) (2.2397e-16 3.50572e-17 1.94849e-14) (1.71753e-17 3.98815e-17 2.09874e-14) (1.63223e-16 3.12125e-17 2.20509e-14) (-2.01593e-16 -1.97954e-16 2.40736e-14) (-1.92557e-16 1.41904e-17 2.23212e-14)
2100          (1.53209e-17 -1.07679e-17 6.10889e-16) (1.75361e-17 -1.38941e-17 5.3561e-15) (-7.07957e-18 -3.45243e-17 1.13401e-14) (-3.53728e-17 -2.1689e-16 1.73294e-14) (1.40671e-16 2.30598e-16 2.17475e-14) (-7.28606e-17 1.02385e-16 2.69807e-14) (3.62595e-16 6.07176e-17 3.15439e-14) (2.27266e-17 5.74044e-17 3.40045e-14) (2.64028e-16 5.01528e-17 3.57129e-14) (-3.2976e-16 -3.24866e-16 3.89882e-14) (-3.1085e-16 2.75668e-17 3.61429e-14)
2150          (-3.24511e-16 2.28799e-16 -1.10425e-14) (-3.31168e-16 2.82607e-16 -9.66888e-14) (1.42423e-16 5.96449e-16 -2.04686e-13) (7.19466e-16 3.97061e-15 -3.127e-13) (-2.54129e-15 -4.16855e-15 -3.92304e-13) (1.33425e-15 -1.88069e-15 -4.86826e-13) (-6.57001e-15 -1.11549e-15 -5.69084e-13) (-4.4705e-16 -1.05651e-15 -6.1349e-13) (-4.78668e-15 -9.05902e-16 -6.44434e-13) (5.95434e-15 5.83984e-15 -7.03444e-13) (5.60395e-15 -4.6843e-16 -6.52147e-13)
2200          (-1.90459e-17 1.38935e-17 -6.10861e-16) (-1.92195e-17 1.56456e-17 -5.3634e-15) (1.00926e-17 3.12562e-17 -1.13719e-14) (3.99175e-17 2.20312e-16 -1.73617e-14) (-1.41936e-16 -2.30723e-16 -2.17888e-14) (7.48887e-17 -1.0568e-16 -2.70265e-14) (-3.61178e-16 -5.95166e-17 -3.16033e-14) (-2.43019e-17 -6.21206e-17 -3.40742e-14) (-2.65449e-16 -5.04322e-17 -3.57908e-14) (3.31492e-16 3.24726e-16 -3.90683e-14) (3.10553e-16 -2.75823e-17 -3.6222e-14)
2250          (-1.61321e-16 1.14168e-16 -5.51446e-15) (-1.67738e-16 1.46937e-16 -4.82432e-14) (7.27184e-17 2.96832e-16 -1.02154e-13) (3.55802e-16 1.98113e-15 -1.56067e-13) (-1.26482e-15 -2.08003e-15 -1.95783e-13) (6.66319e-16 -9.36975e-16 -2.42965e-13) (-3.27739e-15 -5.55463e-16 -2.84025e-13) (-2.18945e-16 -5.32268e-16 -3.06186e-13) (-2.39072e-15 -4.52787e-16 -3.21629e-13) (2.97033e-15 2.91479e-15 -3.51079e-13) (2.79856e-15 -2.35597e-16 -3.25482e-13)
2300          (-7.09847e-18 6.78118e-18 -3.04948e-16) (-8.82821e-18 8.51715e-18 -2.68423e-15) (3.43991e-18 1.55986e-17 -5.66194e-15) (1.89104e-17 1.09462e-16 -8.66623e-15) (-7.09852e-17 -1.14667e-16 -1.08767e-14) (4.11149e-17 -5.20264e-17 -1.35001e-14) (-1.81994e-16 -2.80994e-17 -1.5771e-14) (-1.05974e-17 -2.94731e-17 -1.7012e-14) (-1.33574e-16 -2.59896e-17 -1.78627e-14) (1.64836e-16 1.6461e-16 -1.94966e-14) (1.54566e-16 -1.37045e-17 -1.80684e-14)
2350          (3.49303e-15 -2.45727e-15 1.18719e-13) (3.55015e-15 -3.04733e-15 1.0394e-12) (-1.55572e-15 -6.41411e-15 2.20043e-12) (-7.72264e-15 -4.26626e-14 3.36112e-12) (2.72893e-14 4.47804e-14 4.21619e-12) (-1.43355e-14 2.02134e-14 5.23129e-12) (7.05208e-14 1.19725e-14 6.11434e-12) (4.75038e-15 1.13614e-14 6.59056e-12) (5.14368e-14 9.73158e-15 6.92226e-12) (-6.39562e-14 -6.27075e-14 7.55551e-12) (-6.02145e-14 5.04851e-15 7.00444e-12)
2400          (1.92715e-16 -1.37013e-16 6.5896e-15) (1.962e-16 -1.69991e-16 5.76637e-14) (-8.65681e-17 -3.55655e-16 1.22101e-13) (-4.28654e-16 -2.36986e-15 1.86543e-13) (1.51463e-15 2.48628e-15 2.34036e-13) (-7.96268e-16 1.12413e-15 2.90435e-13) (3.9172e-15 6.64441e-16 3.39534e-13) (2.65418e-16 6.28294e-16 3.66048e-13) (2.85428e-15 5.38303e-16 3.84526e-13) (-3.54977e-15 -3.49022e-15 4.19737e-13) (-3.34489e-15 2.7789e-16 3.89143e-13)
2450          (1.05504e-17 -6.97182e-18 3.6802e-16) (1.19555e-17 -8.84692e-18 3.20193e-15) (-5.53031e-18 -1.76615e-17 6.77877e-15) (-2.42863e-17 -1.31513e-16 1.03601e-14) (8.35775e-17 1.38776e-16 1.29921e-14) (-4.68233e-17 6.08595e-17 1.61464e-14) (2.15302e-16 3.64312e-17 1.88707e-14) (1.40043e-17 3.2979e-17 2.03427e-14) (1.59597e-16 2.96462e-17 2.13537e-14) (-1.9634e-16 -1.94434e-16 2.33241e-14) (-1.8548e-16 1.56142e-17 2.16184e-14)
2500          (-2.25391e-17 1.57999e-17 -7.97928e-16) (-2.27124e-17 1.79754e-17 -6.9787e-15) (1.02538e-17 4.30402e-17 -1.47715e-14) (5.18687e-17 2.84671e-16 -2.25686e-14) (-1.82133e-16 -2.98552e-16 -2.83094e-14) (9.88607e-17 -1.33767e-16 -3.51348e-14) (-4.7359e-16 -8.169e-17 -4.1073e-14) (-3.28038e-17 -7.77491e-17 -4.42824e-14) (-3.46981e-16 -6.42011e-17 -4.65134e-14) (4.30392e-16 4.18423e-16 -5.07741e-14) (4.04057e-16 -3.46948e-17 -4.70689e-14)
2550          (1.525e-16 -1.0615e-16 5.22654e-15) (1.55659e-16 -1.33751e-16 4.57657e-14) (-6.57842e-17 -2.81172e-16 9.68836e-14) (-3.40028e-16 -1.87718e-15 1.48004e-13) (1.20218e-15 1.97102e-15 1.85654e-13) (-6.33371e-16 8.89946e-16 2.30356e-13) (3.10704e-15 5.28786e-16 2.69247e-13) (2.13044e-16 4.99643e-16 2.90225e-13) (2.26409e-15 4.2978e-16 3.04835e-13) (-2.81558e-15 -2.76197e-15 3.32723e-13) (-2.64956e-15 2.23624e-16 3.08458e-13)
2600          (8.67362e-18 -6.76731e-18 2.91694e-16) (8.2051e-18 -7.11223e-18 2.53553e-15) (-3.31504e-18 -1.54408e-17 5.37393e-15) (-1.92237e-17 -1.04054e-16 8.20932e-15) (6.42338e-17 1.10542e-16 1.03115e-14) (-3.32914e-17 4.86021e-17 1.27961e-14) (1.71897e-16 2.95076e-17 1.49486e-14) (1.07695e-17 2.7932e-17 1.61144e-14) (1.26901e-16 2.41002e-17 1.69326e-14) (-1.57392e-16 -1.54549e-16 1.84901e-14) (-1.47485e-16 1.21448e-17 1.71376e-14)
2650          (-8.49882e-17 6.04048e-17 -2.92324e-15) (-8.97095e-17 7.77331e-17 -2.55758e-14) (3.62767e-17 1.57909e-16 -5.41606e-14) (1.87557e-16 1.04814e-15 -8.27375e-14) (-6.73081e-16 -1.10301e-15 -1.03805e-13) (3.5373e-16 -4.97717e-16 -1.28824e-13) (-1.73828e-15 -2.93192e-16 -1.506e-13) (-1.17962e-16 -2.78045e-16 -1.6236e-13) (-1.26343e-15 -2.3456e-16 -1.70545e-13) (1.57694e-15 1.54602e-15 -1.86173e-13) (1.48203e-15 -1.23495e-16 -1.72596e-13)
2700          (7.30444e-16 -5.11829e-16 2.46092e-14) (7.0631e-16 -6.26501e-16 2.07881e-13) (-3.03458e-16 -1.06736e-15 4.02291e-13) (-1.00152e-15 -6.89866e-15 5.39322e-13) (3.97176e-15 6.09921e-15 5.74004e-13) (-1.69877e-15 2.40176e-15 5.95242e-13) (6.71956e-15 1.19912e-15 5.79968e-13) (6.50735e-16 1.18542e-15 5.24193e-13) (3.64149e-15 6.38379e-16 4.75708e-13) (-4.0113e-15 -3.91786e-15 4.69683e-13) (-3.59645e-15 3.05309e-16 4.18664e-13)
2750          (1.563e-17 -1.21089e-17 5.40906e-16) (1.73474e-17 -1.24444e-17 4.73477e-15) (-5.39485e-18 -2.80677e-17 1.00257e-14) (-3.6117e-17 -1.92888e-16 1.53274e-14) (1.21452e-16 2.06264e-16 1.92279e-14) (-6.75122e-17 9.18158e-17 2.38481e-14) (3.21102e-16 5.36223e-17 2.7877e-14) (2.23955e-17 5.37457e-17 3.0053e-14) (2.35769e-16 4.51045e-17 3.15762e-14) (-2.92893e-16 -2.89513e-16 3.4466e-14) (-2.7425e-16 2.08359e-17 3.19515e-14)
2800          (1.17637e-16 -8.15495e-17 3.9952e-15) (1.21402e-16 -9.95418e-17 3.49568e-14) (-4.89337e-17 -2.13394e-16 7.40034e-14) (-2.60243e-16 -1.43589e-15 1.13059e-13) (9.17531e-16 1.50597e-15 1.41833e-13) (-4.82276e-16 6.7865e-16 1.76014e-13) (2.37335e-15 4.0123e-16 2.05756e-13) (1.6119e-16 3.8325e-16 2.21822e-13) (1.73136e-15 3.24575e-16 2.33005e-13) (-2.15183e-15 -2.11316e-15 2.54342e-13) (-2.02785e-15 1.69988e-16 2.35802e-13)
2850          (1.6352e-18 -1.3249e-12 2.79517e-12) (-1.18931e-13 -1.02707e-13 3.64585e-12) (-3.985e-15 -1.25754e-15 1.51814e-12) (9.21294e-16 -5.25967e-15 5.31761e-13) (8.06877e-16 5.06805e-16 1.11014e-13) (1.43031e-16 -1.8917e-16 -3.28261e-14) (-9.04234e-16 -1.67056e-16 -7.42542e-14) (-9.86806e-17 -1.83477e-16 -7.27065e-14) (-4.61914e-16 -7.29696e-17 -6.1459e-14) (4.51092e-16 4.36104e-16 -5.51042e-14) (3.78328e-16 -3.32694e-17 -4.72016e-14)
2900          (1.92396e-17 -1.52689e-17 6.86558e-16) (2.08633e-17 -1.71911e-17 5.9872e-15) (-5.72473e-18 -3.50071e-17 1.2679e-14) (-4.49484e-17 -2.43213e-16 1.937e-14) (1.54426e-16 2.57211e-16 2.42977e-14) (-8.65476e-17 1.16074e-16 3.01488e-14) (4.05968e-16 7.11051e-17 3.52523e-14) (2.94887e-17 6.61103e-17 3.80056e-14) (2.96658e-16 5.41079e-17 3.99184e-14) (-3.69517e-16 -3.6275e-16 4.35841e-14) (-3.47297e-16 3.10519e-17 4.04026e-14)
2950          (-1.16199e-16 7.99728e-17 -3.98586e-15) (-1.21431e-16 1.02038e-16 -3.48989e-14) (5.35861e-17 2.11969e-16 -7.3887e-14) (2.5695e-16 1.42996e-15 -1.12882e-13) (-9.19106e-16 -1.50406e-15 -1.41613e-13) (4.83824e-16 -6.75201e-16 -1.75728e-13) (-2.36821e-15 -4.04074e-16 -2.05409e-13) (-1.61147e-16 -3.83206e-16 -2.21425e-13) (-1.72646e-15 -3.2924e-16 -2.32589e-13) (2.15115e-15 2.1064e-15 -2.53877e-13) (2.01984e-15 -1.66711e-16 -2.35358e-13)
3000          (3.32307e-19 2.25517e-13 -3.23696e-13) (-2.27178e-15 3.46387e-14 -2.31846e-13) (6.7796e-16 3.14085e-15 -3.84109e-13) (4.00409e-16 8.17614e-15 -4.22852e-13) (-3.48528e-15 -4.95403e-15 -3.83504e-13) (1.15694e-15 -1.74437e-15 -3.51327e-13) (-3.74501e-15 -7.07738e-16 -3.08708e-13) (-3.89369e-16 -6.67286e-16 -2.56253e-13) (-1.68182e-15 -2.93614e-16 -2.1803e-13) (1.75593e-15 1.71747e-15 -2.06967e-13) (1.55653e-15 -1.34016e-16 -1.8268e-13)
3050          (-1.09495e-15 7.66844e-16 -3.70036e-14) (-1.07569e-15 9.47287e-16 -3.15905e-13) (4.68104e-16 1.70547e-15 -6.25986e-13) (1.70251e-15 1.10627e-14 -8.66441e-13) (-6.53776e-15 -1.01793e-14 -9.57509e-13) (2.9184e-15 -4.1278e-15 -1.03242e-12) (-1.2095e-14 -2.13279e-15 -1.04475e-12) (-1.11235e-15 -2.11135e-15 -9.78419e-13) (-6.96009e-15 -1.23519e-15 -9.14102e-13) (7.85029e-15 7.67005e-15 -9.20647e-13) (7.10743e-15 -5.9848e-16 -8.27132e-13)
3100          (-2.61822e-17 1.75363e-17 -9.98501e-16) (-3.44881e-17 2.60399e-17 -8.7443e-15) (1.21417e-17 5.20592e-17 -1.85017e-14) (6.4029e-17 3.57379e-16 -2.82638e-14) (-2.28677e-16 -3.78034e-16 -3.54806e-14) (1.23164e-16 -1.66869e-16 -4.40239e-14) (-5.9346e-16 -1.02193e-16 -5.14742e-14) (-3.99193e-17 -9.83953e-17 -5.54861e-14) (-4.32327e-16 -8.15463e-17 -5.82861e-14) (5.41243e-16 5.25821e-16 -6.36278e-14) (5.0642e-16 -4.32137e-17 -5.89944e-14)
3150          (-2.7236e-16 1.92545e-16 -9.32962e-15) (-2.80673e-16 2.40805e-16 -8.16874e-14) (1.1973e-16 5.03393e-16 -1.72922e-13) (6.07179e-16 3.35333e-15 -2.64126e-13) (-2.14611e-15 -3.52006e-15 -3.31277e-13) (1.1245e-15 -1.58751e-15 -4.10969e-13) (-5.54286e-15 -9.40271e-16 -4.80266e-13) (-3.71772e-16 -8.96548e-16 -5.17598e-13) (-4.03738e-15 -7.63637e-16 -5.43593e-13) (5.02089e-15 4.92512e-15 -5.93277e-13) (4.7277e-15 -3.95696e-16 -5.49996e-13)
3200          (-1.72969e-17 1.21134e-17 -5.16929e-16) (-1.56e-17 1.69847e-17 -4.53662e-15) (6.74997e-18 2.7754e-17 -9.5915e-15) (3.32552e-17 1.85771e-16 -1.46552e-14) (-1.22493e-16 -1.94153e-16 -1.83764e-14) (6.43409e-17 -8.84414e-17 -2.28097e-14) (-3.05505e-16 -5.20264e-17 -2.66689e-14) (-2.23655e-17 -4.71726e-17 -2.87471e-14) (-2.25517e-16 -4.31965e-17 -3.02075e-14) (2.79309e-16 2.72202e-16 -3.29696e-14) (2.61806e-16 -2.27093e-17 -3.05599e-14)
3250          (-2.34225e-16 1.64973e-16 -8.02902e-15) (-2.4285e-16 2.06143e-16 -7.03189e-14) (1.02854e-16 4.35546e-16 -1.48865e-13) (5.23736e-16 2.88794e-15 -2.27413e-13) (-1.84876e-15 -3.03082e-15 -2.85318e-13) (9.69774e-16 -1.36892e-15 -3.54058e-13) (-4.77611e-15 -8.0843e-16 -4.13899e-13) (-3.22511e-16 -7.66965e-16 -4.46205e-13) (-3.48223e-15 -6.58131e-16 -4.68723e-13) (4.33072e-15 4.24432e-15 -5.11644e-13) (4.07731e-15 -3.43321e-16 -4.74352e-13)