# Probe 0 (0.0015 0.0015 0)
# Probe 1 (0.0015 0.0015 0.002)
# Probe 2 (0.0015 0.0015 0.004)
# Probe 3 (0.0015 0.0015 0.006)
# Probe 4 (0.0015 0.0015 0.008)
# Probe 5 (0.0015 0.0015 0.01)
# Probe 6 (0.0015 0.0015 0.012)
# Probe 7 (0.0015 0.0015 0.014)
# Probe 8 (0.0015 0.0015 0.016)
# Probe 9 (0.0015 0.0015 0.018)
# Probe 10 (0.0015 0.0015 0.02)
# Time        0             1             2             3             4             5             6             7             8             9             10           
50            27100.3       0.000153475   0.000148848   27100.3       0.000207597   27100.3       0.000190435   0.000645489   0.000317296   0.000162053   0.00134483   
100           27100.3       0.000153475   0.000148848   27100.3       0.000207597   27100.3       0.000190435   0.000645489   0.000317296   0.000162053   0.00134483   
150           27100.3       0.000153475   0.000148848   27100.3       0.000207597   27100.3       0.000190435   0.000645489   0.000317296   0.000162053   0.00134483   
200           27100.3       0.000153475   0.000148848   27100.3       0.000207597   27100.3       0.000190435   0.000645489   0.000317296   0.000162053   0.00134483   
250           27100.3       0.000153475   0.000148848   27100.3       0.000207597   27100.3       0.000190435   0.000645489   0.000317296   0.000162053   0.00134483   
300           27100.3       0.000153475   0.000148848   27100.3       0.000207597   27100.3       0.000190435   0.000645489   0.000317296   0.000162053   0.00134483   
350           27100.3       0.000153475   0.000148848   27100.3       0.000207597   27100.3       0.000190435   0.000645489   0.000317296   0.000162053   0.00134483   
400           27100.3       0.000153475   0.000148848   27100.3       0.000207597   27100.3       0.000190435   0.000645489   0.000317296   0.000162053   0.00134483   
450           27100.3       0.000153475   0.000148848   27100.3       0.000207597   27100.3       0.000190435   0.000645489   0.000317296   0.000162053   0.00134483   
500           27100.3       0.000153475   0.000148848   27100.3       0.000207597   27100.3       0.000190435   0.000645489   0.000317296   0.000162053   0.00134483   
550           27100.3       0.000153475   0.000148848   27100.3       0.000207597   27100.3       0.000190435   0.000645489   0.000317296   0.000162053   0.00134483   
600           27100.3       0.000153475   0.000148848   27100.3       0.000207597   27100.3       0.000190435   0.000645489   0.000317296   0.000162053   0.00134483   
650           27100.3       0.000153475   0.000148848   27100.3       0.000207597   27100.3       0.000190435   0.000645489   0.000317296   0.000162053   0.00134483   
700           27100.3       0.000153475   0.000148848   27100.3       0.000207597   27100.3       0.000190435   0.000645489   0.000317296   0.000162053   0.00134483   
750           27100.3       0.000153475   0.000148848   27100.3       0.000207597   27100.3       0.000190435   0.000645489   0.000317296   0.000162053   0.00134483   
800           27100.3       0.000153475   0.000148848   27100.3       0.000207597   27100.3       0.000190435   0.000645489   0.000317296   0.000162053   0.00134483   
850           27100.3       0.000153475   0.000148848   27100.3       0.000207597   27100.3       0.000190435   0.000645489   0.000317296   0.000162053   0.00134483   
900           27100.3       0.000153475   0.000148848   27100.3       0.000207597   27100.3       0.000190435   0.000645489   0.000317296   0.000162053   0.00134483   
950           27100.3       0.000153475   0.000148848   27100.3       0.000207597   27100.3       0.000190435   0.000645489   0.000317296   0.000162053   0.00134483   
1000          27100.3       0.000153475   0.000148848   27100.3       0.000207597   27100.3       0.000190435   0.000645489   0.000317296   0.000162053   0.00134483   
1050          27100.3       0.000153475   0.000148848   27100.3       0.000207597   27100.3       0.000190435   0.000645489   0.000317296   0.000162053   0.00134483   
1100          27100.3       0.000153475   0.000148848   27100.3       0.000207597   27100.3       0.000190435   0.000645489   0.000317296   0.000162053   0.00134483   
1150          27100.3       0.000153475   0.000148848   27100.3       0.000207597   27100.3       0.000190435   0.000645489   0.000317296   0.000162053   0.00134483   
1200          27100.3       0.000153475   0.000148848   27100.3       0.000207597   27100.3       0.000190435   0.000645489   0.000317296   0.000162053   0.00134483   
1250          27100.3       0.000153475   0.000148848   27100.3       0.000207597   27100.3       0.000190435   0.000645489   0.000317296   0.000162053   0.00134483   
1300          27100.3       0.000153475   0.000148848   27100.3       0.000207597   27100.3       0.000190435   0.000645489   0.000317296   0.000162053   0.00134483   
1350          27100.3       0.000153475   0.000148848   27100.3       0.000207597   27100.3       0.000190435   0.000645489   0.000317296   0.000162053   0.00134483   
1400          27100.3       0.000153475   0.000148848   27100.3       0.000207597   27100.3       0.000190435   0.000645489   0.000317296   0.000162053   0.00134483   
1450          27100.3       0.000153475   0.000148848   27100.3       0.000207597   27100.3       0.000190435   0.000645489   0.000317296   0.000162053   0.00134483   
1500          27100.3       0.000153475   0.000148848   27100.3       0.000207597   27100.3       0.000190435   0.000645489   0.000317296   0.000162053   0.00134483   
1550          27100.3       0.000153475   0.000148848   27100.3       0.000207597   27100.3       0.000190435   0.000645489   0.000317296   0.000162053   0.00134483   
1600          27100.3       0.000153475   0.000148848   27100.3       0.000207597   27100.3       0.000190435   0.000645489   0.000317296   0.000162053   0.00134483   
1650          27100.3       0.000153475   0.000148848   27100.3       0.000207597   27100.3       0.000190435   0.000645489   0.000317296   0.000162053   0.00134483   
1700          27100.3       0.000153475   0.000148848   27100.3       0.000207597   27100.3       0.000190435   0.000645489   0.000317296   0.000162053   0.00134483   
1750          27100.3       0.000153475   0.000148848   27100.3       0.000207597   27100.3       0.000190435   0.000645489   0.000317296   0.000162053   0.00134483   
1800          27100.3       0.000153475   0.000148848   27100.3       0.000207597   27100.3       0.000190435   0.000645489   0.000317296   0.000162053   0.00134483   
1850          27100.3       0.000153475   0.000148848   27100.3       0.000207597   27100.3       0.000190435   0.000645489   0.000317296   0.000162053   0.00134483   
1900          27100.3       0.000153475   0.000148848   27100.3       0.000207597   27100.3       0.000190435   0.000645489   0.000317296   0.000162053   0.00134483   
1950          27100.3       0.000153475   0.000148848   27100.3       0.000207597   27100.3       0.000190435   0.000645489   0.000317296   0.000162053   0.00134483   
2000          27100.3       0.000153475   0.000148848   27100.3       0.000207597   27100.3       0.000190435   0.000645489   0.000317296   0.000162053   0.00134483   
2050          27100.3       0.000153475   0.000148848   27100.3       0.000207597   27100.3       0.000190435   0.000645489   0.000317296   0.000162053   0.00134483   
2100          27100.3       0.000153475   0.000148848   27100.3       0.000207597   27100.3       0.000190435   0.000645489   0.000317296   0.000162053   0.00134483   
2150          27100.3       0.000153475   0.000148848   27100.3       0.000207597   27100.3       0.000190435   0.000645489   0.000317296   0.000162053   0.00134483   
2200          27100.3       0.000153475   0.000148848   27100.3       0.000207597   27100.3       0.000190435   0.000645489   0.000317296   0.000162053   0.00134483   
2250          27100.3       0.000153475   0.000148848   27100.3       0.000207597   27100.3       0.000190435   0.000645489   0.000317296   0.000162053   0.00134483   
2300          27100.3       0.000153475   0.000148848   27100.3       0.000207597   27100.3       0.000190435   0.000645489   0.000317296   0.000162053   0.00134483   
2350          27100.3       0.000153475   0.000148848   27100.3       0.000207597   27100.3       0.000190435   0.000645489   0.000317296   0.000162053   0.00134483   
2400          27100.3       0.000153475   0.000148848   27100.3       0.000207597   27100.3       0.000190435   0.000645489   0.000317296   0.000162053   0.00134483   
2450          27100.3       0.000153475   0.000148848   27100.3       0.000207597   27100.3       0.000190435   0.000645489   0.000317296   0.000162053   0.00134483   
2500          27100.3       0.000153475   0.000148848   27100.3       0.000207597   27100.3       0.000190435   0.000645489   0.000317296   0.000162053   0.00134483   
2550          27100.3       0.000153475   0.000148848   27100.3       0.000207597   27100.3       0.000190435   0.000645489   0.000317296   0.000162053   0.00134483   
2600          27100.3       0.000153475   0.000148848   27100.3       0.000207597   27100.3       0.000190435   0.000645489   0.000317296   0.000162053   0.00134483   
2650          27100.3       0.000153475   0.000148848   27100.3       0.000207597   27100.3       0.000190435   0.000645489   0.000317296   0.000162053   0.00134483   
2700          27100.3       0.000153475   0.000148848   27100.3       0.000207597   27100.3       0.000190435   0.000645489   0.000317296   0.000162053   0.00134483   
2750          27100.3       0.000153475   0.000148848   27100.3       0.000207597   27100.3       0.000190435   0.000645489   0.000317296   0.000162053   0.00134483   
2800          27100.3       0.000153475   0.000148848   27100.3       0.000207597   27100.3       0.000190435   0.000645489   0.000317296   0.000162053   0.00134483   
2850          27100.3       0.000153475   0.000148848   27100.3       0.000207597   27100.3       0.000190435   0.000645489   0.000317296   0.000162053   0.00134483   
2900          27100.3       0.000153475   0.000148848   27100.3       0.000207597   27100.3       0.000190435   0.000645489   0.000317296   0.000162053   0.00134483   
2950          27100.3       0.000153475   0.000148848   27100.3       0.000207597   27100.3       0.000190435   0.000645489   0.000317296   0.000162053   0.00134483   
3000          27100.3       0.000153475   0.000148848   27100.3       0.000207597   27100.3       0.000190435   0.000645489   0.000317296   0.000162053   0.00134483   
3050          27100.3       0.000153475   0.000148848   27100.3       0.000207597   27100.3       0.000190435   0.000645489   0.000317296   0.000162053   0.00134483   
3100          27100.3       0.000153475   0.000148848   27100.3       0.000207597   27100.3       0.000190435   0.000645489   0.000317296   0.000162053   0.00134483   
3150          27100.3       0.000153475   0.000148848   27100.3       0.000207597   27100.3       0.000190435   0.000645489   0.000317296   0.000162053   0.00134483   
3200          27100.3       0.000153475   0.000148848   27100.3       0.000207597   27100.3       0.000190435   0.000645489   0.000317296   0.000162053   0.00134483   
3250          27100.3       0.000153475   0.000148848   27100.3       0.000207597   27100.3       0.000190435   0.000645489   0.000317296   0.000162053   0.00134483   
3300          27100.3       0.000153475   0.000148848   27100.3       0.000207597   27100.3       0.000190435   0.000645489   0.000317296   0.000162053   0.00134483   
3350          27100.3       0.000153475   0.000148848   27100.3       0.000207597   27100.3       0.000190435   0.000645489   0.000317296   0.000162053   0.00134483   
3400          27100.3       0.000153475   0.000148848   27100.3       0.000207597   27100.3       0.000190435   0.000645489   0.000317296   0.000162053   0.00134483   
3450          27100.3       0.000153475   0.000148848   27100.3       0.000207597   27100.3       0.000190435   0.000645489   0.000317296   0.000162053   0.00134483   
3500          27100.3       0.000153475   0.000148848   27100.3       0.000207597   27100.3       0.000190435   0.000645489   0.000317296   0.000162053   0.00134483   
3550          27100.3       0.000153475   0.000148848   27100.3       0.000207597   27100.3       0.000190435   0.000645489   0.000317296   0.000162053   0.00134483   
3600          27100.3       0.000153475   0.000148848   27100.3       0.000207597   27100.3       0.000190435   0.000645489   0.000317296   0.000162053   0.00134483   
3650          27100.3       0.000153475   0.000148848   27100.3       0.000207597   27100.3       0.000190435   0.000645489   0.000317296   0.000162053   0.00134483   
3700          27100.3       0.000153475   0.000148848   27100.3       0.000207597   27100.3       0.000190435   0.000645489   0.000317296   0.000162053   0.00134483   
3750          27100.3       0.000153475   0.000148848   27100.3       0.000207597   27100.3       0.000190435   0.000645489   0.000317296   0.000162053   0.00134483   
3800          27100.3       0.000153475   0.000148848   27100.3       0.000207597   27100.3       0.000190435   0.000645489   0.000317296   0.000162053   0.00134483   
3850          27100.3       0.000153475   0.000148848   27100.3       0.000207597   27100.3       0.000190435   0.000645489   0.000317296   0.000162053   0.00134483   
3900          27100.3       0.000153475   0.000148848   27100.3       0.000207597   27100.3       0.000190435   0.000645489   0.000317296   0.000162053   0.00134483   
3950          27100.3       0.000153475   0.000148848   27100.3       0.000207597   27100.3       0.000190435   0.000645489   0.000317296   0.000162053   0.00134483   
4000          27100.3       0.000153475   0.000148848   27100.3       0.000207597   27100.3       0.000190435   0.000645489   0.000317296   0.000162053   0.00134483   
4050          27100.3       0.000153475   0.000148848   27100.3       0.000207597   27100.3       0.000190435   0.000645489   0.000317296   0.000162053   0.00134483   
4100          27100.3       0.000153475   0.000148848   27100.3       0.000207597   27100.3       0.000190435   0.000645489   0.000317296   0.000162053   0.00134483   
4150          27100.3       0.000153475   0.000148848   27100.3       0.000207597   27100.3       0.000190435   0.000645489   0.000317296   0.000162053   0.00134483   
4200          27100.3       0.000153475   0.000148848   27100.3       0.000207597   27100.3       0.000190435   0.000645489   0.000317296   0.000162053   0.00134483   
4250          27100.3       0.000153475   0.000148848   27100.3       0.000207597   27100.3       0.000190435   0.000645489   0.000317296   0.000162053   0.00134483   
4300          27100.3       0.000153475   0.000148848   27100.3       0.000207597   27100.3       0.000190435   0.000645489   0.000317296   0.000162053   0.00134483   
4350          27100.3       0.000153475   0.000148848   27100.3       0.000207597   27100.3       0.000190435   0.000645489   0.000317296   0.000162053   0.00134483   
4400          27100.3       0.000153475   0.000148848   27100.3       0.000207597   27100.3       0.000190435   0.000645489   0.000317296   0.000162053   0.00134483   
4450          27100.3       0.000153475   0.000148848   27100.3       0.000207597   27100.3       0.000190435   0.000645489   0.000317296   0.000162053   0.00134483   
4500          27100.3       0.000153475   0.000148848   27100.3       0.000207597   27100.3       0.000190435   0.000645489   0.000317296   0.000162053   0.00134483   
4550          27100.3       0.000153475   0.000148848   27100.3       0.000207597   27100.3       0.000190435   0.000645489   0.000317296   0.000162053   0.00134483   
4600          27100.3       0.000153475   0.000148848   27100.3       0.000207597   27100.3       0.000190435   0.000645489   0.000317296   0.000162053   0.00134483   
4650          27100.3       0.000153475   0.000148848   27100.3       0.000207597   27100.3       0.000190435   0.000645489   0.000317296   0.000162053   0.00134483   
4700          27100.3       0.000153475   0.000148848   27100.3       0.000207597   27100.3       0.000190435   0.000645489   0.000317296   0.000162053   0.00134483   
4750          27100.3       0.000153475   0.000148848   27100.3       0.000207597   27100.3       0.000190435   0.000645489   0.000317296   0.000162053   0.00134483   
4800          27100.3       0.000153475   0.000148848   27100.3       0.000207597   27100.3       0.000190435   0.000645489   0.000317296   0.000162053   0.00134483   
4850          27100.3       0.000153475   0.000148848   27100.3       0.000207597   27100.3       0.000190435   0.000645489   0.000317296   0.000162053   0.00134483   
4900          27100.3       0.000153475   0.000148848   27100.3       0.000207597   27100.3       0.000190435   0.000645489   0.000317296   0.000162053   0.00134483   
4950          27100.3       0.000153475   0.000148848   27100.3       0.000207597   27100.3       0.000190435   0.000645489   0.000317296   0.000162053   0.00134483   
5000          27100.3       0.000153475   0.000148848   27100.3       0.000207597   27100.3       0.000190435   0.000645489   0.000317296   0.000162053   0.00134483   
