# Probe 0 (0.0015 0.0015 0)
# Probe 1 (0.0015 0.0015 0.002)
# Probe 2 (0.0015 0.0015 0.004)
# Probe 3 (0.0015 0.0015 0.006)
# Probe 4 (0.0015 0.0015 0.008)
# Probe 5 (0.0015 0.0015 0.01)
# Probe 6 (0.0015 0.0015 0.012)
# Probe 7 (0.0015 0.0015 0.014)
# Probe 8 (0.0015 0.0015 0.016)
# Probe 9 (0.0015 0.0015 0.018)
# Probe 10 (0.0015 0.0015 0.02)
# Time        0             1             2             3             4             5             6             7             8             9             10           
50            (0.261937 -0.855687 -3.9573e+07) (1.14633e+06 2.39175e+06 -4.33154e+07) (-948873 -1.79432e+06 -2.21953e+07) (296800 106325 -3.159e+06) (-279093 -100840 -2.36905e+06) (15501.5 26855.8 -308665) (-6135.63 319.772 -70918) (-9917.78 2299.45 103909) (-3792.95 4442.23 490277) (-211413 -137778 1.70077e+06) (402177 71476 2.76018e+06)
100           (0.210484 -0.662482 -3.09196e+07) (3.07099e+06 3.01742e+06 -4.94032e+07) (-1.58519e+06 -2.9255e+06 -3.53998e+07) (532494 159324 -5.79965e+06) (-537283 -193988 -4.54798e+06) (31535 52073.7 -616783) (-11019.6 -1252.49 -179764) (-10340.5 7290.8 83972.9) (-4083.87 4940.61 543239) (-221883 -138743 1.83704e+06) (390360 73094.5 2.60709e+06)
150           (0.175434 -0.544261 -2.56359e+07) (3.59587e+06 2.96337e+06 -4.53425e+07) (-2.11546e+06 -3.84389e+06 -4.46157e+07) (823719 164761 -9.29266e+06) (-930169 -335543 -7.84572e+06) (57618.4 91536.2 -1.11144e+06) (-18694.5 -4240.02 -364867) (-9765.27 16198.3 33571.8) (-4321.75 5379.43 593702) (-232708 -139026 1.98178e+06) (376870 74928.3 2.43645e+06)
200           (0.152729 -0.471917 -2.2262e+07) (3.40277e+06 2.69868e+06 -4.04756e+07) (-2.29234e+06 -4.15005e+06 -4.65512e+07) (1.1041e+06 80660 -1.27041e+07) (-1.45539e+06 -524002 -1.22071e+07) (96903.3 147461 -1.84387e+06) (-30049.7 -9424.98 -656463) (-7574.82 30662 -62391.2) (-4460.8 5635.41 633275) (-241987 -138111 2.11623e+06) (361641 75921 2.26302e+06)
250           (0.136656 -0.421501 -1.98903e+07) (3.15344e+06 2.45913e+06 -3.66115e+07) (-2.24574e+06 -4.06058e+06 -4.48205e+07) (1.28196e+06 -41704.9 -1.48344e+07) (-2.05258e+06 -735490 -1.70709e+07) (152501 218625 -2.84913e+06) (-45609.9 -17908.2 -1.09139e+06) (-3048.98 52748.6 -222723) (-4429.43 5582.93 652863) (-248339 -135626 2.22486e+06) (344948 75320.4 2.0971e+06)
300           (0.124549 -0.383617 -1.81117e+07) (2.93161e+06 2.26463e+06 -3.35829e+07) (-2.13599e+06 -3.85992e+06 -4.23177e+07) (1.32251e+06 -118704 -1.5465e+07) (-2.60246e+06 -922267 -2.1405e+07) (226452 296795 -4.11485e+06) (-65667.5 -31489 -1.71149e+06) (4768.45 85069.9 -471793) (-4164.07 5046.03 641369) (-250863 -131683 2.29567e+06) (327270 73123.5 1.94352e+06)
350           (0.11501 -0.353905 -1.67126e+07) (2.74123e+06 2.10502e+06 -3.11387e+07) (-2.02103e+06 -3.65083e+06 -3.98898e+07) (1.2975e+06 -150287 -1.52845e+07) (-2.98962e+06 -1.03724e+06 -2.43009e+07) (317098 364148 -5.52651e+06) (-89240.9 -52849.7 -2.55371e+06) (17001.2 130467 -837867) (-3577.24 3819.05 585732) (-248948 -126549 2.31882e+06) (308936 69736 1.80255e+06)
400           (0.107218 -0.329733 -1.55725e+07) (2.5779e+06 1.97151e+06 -2.91142e+07) (-1.91474e+06 -3.4579e+06 -3.77035e+07) (1.25459e+06 -162230 -1.48331e+07) (-3.18662e+06 -1.0781e+06 -2.56612e+07) (416142 397622 -6.85739e+06) (-112257 -84942.9 -3.63562e+06) (34883.9 191447 -1.35015e+06) (-2585.48 1637.98 469950) (-242070 -120484 2.28495e+06) (289951 65565.9 1.67123e+06)
450           (0.100686 -0.30945 -1.46199e+07) (2.43676e+06 1.85795e+06 -2.74028e+07) (-1.81921e+06 -3.28471e+06 -3.57641e+07) (1.20808e+06 -166492 -1.43127e+07) (-3.24684e+06 -1.07807e+06 -2.59923e+07) (508870 386913 -7.87461e+06) (-129092 -129726 -4.92013e+06) (59589.7 269084 -2.03239e+06) (-1095.05 -1809.28 275364) (-229566 -114123 2.18385e+06) (269959 60834.6 1.54459e+06)
500           (0.0951001 -0.292252 -1.38075e+07) (2.3135e+06 1.7599e+06 -2.59318e+07) (-1.73375e+06 -3.12993e+06 -3.40432e+07) (1.16236e+06 -167157 -1.37897e+07) (-3.23348e+06 -1.06201e+06 -2.57941e+07) (580991 348375 -8.49171e+06) (-133974 -184448 -6.29719e+06) (92108.5 361552 -2.8936e+06) (983.102 -6869.93 -18875.2) (-210556 -107703 2.0032e+06) (248242 55558.4 1.41636e+06)
550           (0.0903012 -0.277395 -1.31041e+07) (2.20489e+06 1.6742e+06 -2.46501e+07) (-1.65716e+06 -2.99131e+06 -3.25093e+07) (1.11899e+06 -165929 -1.32881e+07) (-3.18521e+06 -1.03969e+06 -2.53517e+07) (627070 307285 -8.78191e+06) (-125300 -239889 -7.59703e+06) (132901 462545 -3.91431e+06) (3711.75 -13894.1 -434130) (-183849 -101218 1.72794e+06) (223786 49592.9 1.27931e+06)
600           (0.0860699 -0.264334 -1.24872e+07) (2.10831e+06 1.59848e+06 -2.35206e+07) (-1.58822e+06 -2.86658e+06 -3.1134e+07) (1.07841e+06 -163641 -1.28157e+07) (-3.12066e+06 -1.01464e+06 -2.47991e+07) (651144 275327 -8.86577e+06) (-107502 -285183 -8.65778e+06) (181678 561297 -5.03635e+06) (7104.88 -23147.2 -988029) (-147923 -94660.6 1.34042e+06) (195288 42673.1 1.12529e+06)
650           (0.0823099 -0.252756 -1.19401e+07) (2.02164e+06 1.53089e+06 -2.25146e+07) (-1.52575e+06 -2.75361e+06 -2.98917e+07) (1.04054e+06 -160722 -1.23729e+07) (-3.0483e+06 -988431 -2.41966e+07) (660331 252364 -8.83256e+06) (-87396.4 -315444 -9.40175e+06) (236999 645824 -6.16514e+06) (11116.5 -34653.2 -1.68741e+06) (-101127 -87679 822344) (161237 34463.5 945418)
700           (0.0789564 -0.242405 -1.14502e+07) (1.94318e+06 1.46997e+06 -2.16094e+07) (-1.46862e+06 -2.65035e+06 -2.87589e+07) (1.00507e+06 -157441 -1.19569e+07) (-2.97208e+06 -961838 -2.35716e+07) (660232 235323 -8.73118e+06) (-69587.3 -332642 -9.84846e+06) (295647 708565 -7.19361e+06) (15617.4 -48013 -2.51966e+06) (-42011.6 -79680.3 158830) (120067 24617.6 730586)
750           (0.0758785 -0.232907 -1.10053e+07) (1.87116e+06 1.41438e+06 -2.07855e+07) (-1.41595e+06 -2.55518e+06 -2.77172e+07) (971696 -153793 -1.15636e+07) (-2.89383e+06 -935123 -2.29366e+07) (654409 221942 -8.58778e+06) (-55491.8 -341123 -1.00695e+07) (352563 749378 -8.04079e+06) (20463.6 -62201.4 -3.44352e+06) (30106.2 -69613.9 -654974) (70353.9 12834.2 472406)
800           (0.0730895 -0.22435 -1.0598e+07) (1.80461e+06 1.3632e+06 -2.0028e+07) (-1.36687e+06 -2.46651e+06 -2.67484e+07) (940045 -150019 -1.119e+07) (-2.81507e+06 -908657 -2.23016e+07) (645002 210762 -8.41784e+06) (-44785.5 -344388 -1.0141e+07) (402498 773073 -8.67985e+06) (25338.9 -75886.5 -4.39626e+06) (114592 -56509.7 -1.6069e+06) (11286.6 -1017.91 165143)
850           (0.070492 -0.216465 -1.02212e+07) (1.74251e+06 1.31562e+06 -1.93248e+07) (-1.32083e+06 -2.38335e+06 -2.58412e+07) (909952 -146173 -1.08342e+07) (-2.73698e+06 -882674 -2.16745e+07) (633561 201008 -8.23366e+06) (-36483 -344711 -1.01233e+07) (442660 785186 -9.13485e+06) (29954.4 -87821 -5.30728e+06) (209118 -39280.2 -2.66419e+06) (-57092.6 -16859.6 -192699)
900           (0.0680765 -0.208932 -9.86995e+06) (1.68432e+06 1.27111e+06 -1.86676e+07) (-1.27746e+06 -2.30502e+06 -2.49876e+07) (881345 -142394 -1.04958e+07) (-2.66089e+06 -857517 -2.10649e+07) (621216 192220 -8.04511e+06) (-29738.5 -343477 -1.00581e+07) (473392 790166 -9.45367e+06) (34086.5 -97483.7 -6.12468e+06) (309916 -17488 -3.77752e+06) (-133619 -34357.3 -596912)
950           (0.0658048 -0.20195 -9.54046e+06) (1.62949e+06 1.2293e+06 -1.80508e+07) (-1.23663e+06 -2.23131e+06 -2.41848e+07) (854295 -138674 -1.01751e+07) (-2.58786e+06 -833419 -2.04808e+07) (608885 184122 -7.86057e+06) (-23930.9 -341568 -9.97289e+06) (496911 791256 -9.68379e+06) (37738.4 -105048 -6.82672e+06) (412525 8901.69 -4.89195e+06) (-216080 -52969.4 -1.03735e+06)
1000          (0.063667 -0.195396 -9.23149e+06) (1.57809e+06 1.19008e+06 -1.74722e+07) (-1.19828e+06 -2.16206e+06 -2.34308e+07) (828862 -135192 -9.8738e+06) (-2.51905e+06 -810746 -1.99305e+07) (597073 176627 -7.68545e+06) (-18838.8 -339469 -9.88347e+06) (515405 790544 -9.85924e+06) (40943.1 -111099 -7.42043e+06) (512709 38315.8 -5.95969e+06) (-301511 -72033.9 -1.49932e+06)
1050          (0.0617035 -0.189506 -8.94238e+06) (1.53006e+06 1.1534e+06 -1.6931e+07) (-1.16247e+06 -2.09739e+06 -2.27263e+07) (805153 -131980 -9.59301e+06) (-2.45519e+06 -789691 -1.94195e+07) (586164 169658 -7.5235e+06) (-14254.6 -337523 -9.7996e+06) (530701 789347 -1.00033e+07) (43784.5 -116142 -7.92494e+06) (607245 69160 -6.94878e+06) (-386761 -90895.5 -1.96578e+06)
1100          (0.0598362 -0.183579 -8.67296e+06) (1.48548e+06 1.11929e+06 -1.64272e+07) (-1.12925e+06 -2.0374e+06 -2.20725e+07) (783246 -129088 -9.33383e+06) (-2.39674e+06 -770401 -1.89514e+07) (576334 163226 -7.37681e+06) (-10125.8 -335872 -9.72606e+06) (543875 788331 -1.01294e+07) (46316 -120515 -8.36063e+06) (694137 99542.1 -7.84406e+06) (-468945 -108980 -2.42035e+06)
1150          (0.0580798 -0.178199 -8.42314e+06) (1.44428e+06 1.08775e+06 -1.59613e+07) (-1.09871e+06 -1.98223e+06 -2.1471e+07) (763211 -126459 -9.09666e+06) (-2.34381e+06 -752881 -1.85273e+07) (567714 157292 -7.24645e+06) (-6331.63 -334620 -9.66545e+06) (555704 787876 -1.02461e+07) (48596.7 -124395 -8.74282e+06) (772549 128440 -8.64304e+06) (-545863 -125864 -2.84949e+06)
1200          (0.0565255 -0.173428 -8.19355e+06) (1.40668e+06 1.05886e+06 -1.55338e+07) (-1.07082e+06 -1.93185e+06 -2.09211e+07) (745029 -124193 -8.88189e+06) (-2.29656e+06 -737215 -1.81481e+07) (560231 151884 -7.13199e+06) (-2914.26 -333749 -9.61775e+06) (566443 788035 -1.03562e+07) (50618.9 -127914 -9.08262e+06) (842398 154617 -9.3501e+06) (-616099 -141276 -3.24403e+06)
1250          (0.055092 -0.168968 -7.98383e+06) (1.37254e+06 1.03258e+06 -1.51447e+07) (-1.0456e+06 -1.88628e+06 -2.04233e+07) (728694 -122215 -8.68904e+06) (-2.2547e+06 -723285 -1.78118e+07) (553863 146975 -7.03285e+06) (231.082 -333251 -9.58243e+06) (576345 788819 -1.04617e+07) (52441.1 -131092 -9.38577e+06) (904048 178200 -9.97235e+06) (-679017 -155094 -3.59901e+06)
1300          (0.0537245 -0.164928 -7.79427e+06) (1.3418e+06 1.00886e+06 -1.47933e+07) (-1.02297e+06 -1.8454e+06 -1.99764e+07) (714134 -120503 -8.51726e+06) (-2.21798e+06 -711037 -1.75164e+07) (548506 142584 -6.94793e+06) (3020.37 -333043 -9.55745e+06) (585426 790078 -1.0562e+07) (54056.9 -133983 -9.65667e+06) (958099 198706 -1.05174e+07) (-734517 -167296 -3.91312e+06)
1350          (0.0526877 -0.161386 -7.6241e+06) (1.31435e+06 987638 -1.44785e+07) (-1.00283e+06 -1.80901e+06 -1.95782e+07) (701272 -119018 -8.36547e+06) (-2.186e+06 -700342 -1.72589e+07) (544043 138668 -6.8758e+06) (5520.75 -333081 -9.54127e+06) (593772 791723 -1.06568e+07) (55476.2 -136602 -9.898e+06) (1.00523e+06 216338 -1.09928e+07) (-782965 -177963 -4.18761e+06)
1400          (0.0516106 -0.158153 -7.47242e+06) (1.29004e+06 968794 -1.41988e+07) (-985034 -1.77684e+06 -1.9226e+07) (689966 -117777 -8.23229e+06) (-2.15836e+06 -691067 -1.70359e+07) (540349 135210 -6.81487e+06) (7729.12 -333284 -9.53174e+06) (601305 793569 -1.07449e+07) (56735.4 -138943 -1.01117e+07) (1.04609e+06 231724 -1.14058e+07) (-824885 -187198 -4.42534e+06)
1450          (0.0507068 -0.155335 -7.33877e+06) (1.26865e+06 952169 -1.39518e+07) (-969424 -1.74862e+06 -1.89168e+07) (680096 -116740 -8.11615e+06) (-2.13452e+06 -683043 -1.68434e+07) (537302 132167 -6.76346e+06) (9708.25 -333583 -9.52727e+06) (608116 795548 -1.08262e+07) (57846.9 -141020 -1.02997e+07) (1.08141e+06 244748 -1.17631e+07) (-860974 -195157 -4.62994e+06)
1500          (0.0498605 -0.152796 -7.22065e+06) (1.24995e+06 937612 -1.37352e+07) (-955789 -1.72397e+06 -1.86465e+07) (671540 -115855 -8.01546e+06) (-2.1141e+06 -676160 -1.66783e+07) (534787 129531 -6.72044e+06) (11397.4 -333962 -9.52605e+06) (614149 797504 -1.08996e+07) (58806.5 -142860 -1.04644e+07) (1.11175e+06 256073 -1.2071e+07) (-891888 -201976 -4.80518e+06)
1550          (0.0491446 -0.150635 -7.1182e+06) (1.23363e+06 924896 -1.35461e+07) (-943967 -1.7026e+06 -1.8412e+07) (664148 -115097 -7.9284e+06) (-2.09665e+06 -670271 -1.65372e+07) (532745 127229 -6.68448e+06) (12872.6 -334389 -9.52728e+06) (619527 799421 -1.09657e+07) (59620.2 -144490 -1.06081e+07) (1.13782e+06 265497 -1.23355e+07) (-918295 -207804 -4.95472e+06)
1600          (0.0485323 -0.148728 -7.02847e+06) (1.21953e+06 913886 -1.33822e+07) (-933729 -1.68409e+06 -1.82088e+07) (657785 -114471 -7.85358e+06) (-2.08184e+06 -665255 -1.64172e+07) (531056 125241 -6.65441e+06) (14159.9 -334814 -9.53032e+06) (624214 801192 -1.10241e+07) (60339.7 -145897 -1.07323e+07) (1.16011e+06 273536 -1.25621e+07) (-940783 -212767 -5.08205e+06)
1650          (0.0479984 -0.147087 -6.95104e+06) (1.20738e+06 904377 -1.32405e+07) (-924900 -1.66813e+06 -1.80335e+07) (652328 -113953 -7.78949e+06) (-2.06926e+06 -660984 -1.63152e+07) (529656 123533 -6.62923e+06) (15287.8 -335209 -9.53447e+06) (628292 802816 -1.10755e+07) (60975.4 -147104 -1.08392e+07) (1.17913e+06 280351 -1.27556e+07) (-959904 -216987 -5.19029e+06)
1700          (0.0475447 -0.145672 -6.8842e+06) (1.1969e+06 896185 -1.31185e+07) (-917346 -1.65447e+06 -1.78833e+07) (647651 -113516 -7.73456e+06) (-2.05857e+06 -657359 -1.62286e+07) (528525 122075 -6.60825e+06) (16215.2 -335591 -9.53846e+06) (631826 804282 -1.11204e+07) (61500.7 -148162 -1.09314e+07) (1.19533e+06 286175 -1.29208e+07) (-976134 -220569 -5.28214e+06)
1750          (0.0471504 -0.144462 -6.82702e+06) (1.18795e+06 889166 -1.30137e+07) (-910860 -1.64274e+06 -1.77545e+07) (643676 -113142 -7.68783e+06) (-2.04949e+06 -654270 -1.61549e+07) (527571 120795 -6.59056e+06) (17039.3 -335950 -9.54275e+06) (634909 805612 -1.11596e+07) (61944.3 -149076 -1.10105e+07) (1.20912e+06 291089 -1.30613e+07) (-989930 -223616 -5.36005e+06)
1800          (0.0468128 -0.143426 -6.778e+06) (1.18029e+06 883158 -1.29241e+07) (-905327 -1.63274e+06 -1.76445e+07) (640279 -112838 -7.64797e+06) (-2.04183e+06 -651658 -1.60926e+07) (526785 119727 -6.57577e+06) (17740.9 -336263 -9.54689e+06) (637533 806766 -1.11933e+07) (62338.1 -149846 -1.10779e+07) (1.22081e+06 295409 -1.31808e+07) (-1.0016e+06 -226192 -5.42606e+06)
1850          (0.0465246 -0.142539 -6.73626e+06) (1.17377e+06 878034 -1.28476e+07) (-900597 -1.62418e+06 -1.75504e+07) (637392 -112591 -7.61417e+06) (-2.03534e+06 -649442 -1.60398e+07) (526117 118814 -6.56326e+06) (18388.1 -336542 -9.55103e+06) (639764 807769 -1.12222e+07) (62683.5 -150499 -1.11352e+07) (1.23075e+06 298797 -1.32822e+07) (-1.01149e+06 -228375 -5.48197e+06)
1900          (0.0462796 -0.141791 -6.70049e+06) (1.1682e+06 873666 -1.27825e+07) (-896592 -1.61694e+06 -1.74707e+07) (634936 -112374 -7.58535e+06) (-2.02984e+06 -647569 -1.59952e+07) (525581 118044 -6.55289e+06) (18887.3 -336788 -9.55441e+06) (641684 808647 -1.12471e+07) (62964.5 -151064 -1.11842e+07) (1.23917e+06 301773 -1.33682e+07) (-1.01986e+06 -230223 -5.52926e+06)
1950          (0.0460721 -0.141146 -6.67006e+06) (1.16347e+06 869949 -1.2727e+07) (-893196 -1.61079e+06 -1.74031e+07) (632855 -112187 -7.56091e+06) (-2.02517e+06 -645980 -1.59573e+07) (525136 117403 -6.54423e+06) (19249 -336998 -9.55693e+06) (643309 809405 -1.12683e+07) (63192.3 -151556 -1.1226e+07) (1.2463e+06 304181 -1.34411e+07) (-1.02694e+06 -231785 -5.56926e+06)
2000          (0.0458899 -0.140615 -6.64453e+06) (1.1595e+06 866809 -1.268e+07) (-890276 -1.60553e+06 -1.73452e+07) (631086 -112067 -7.54038e+06) (-2.02123e+06 -644632 -1.59253e+07) (524771 116856 -6.53692e+06) (19610.1 -337184 -9.55957e+06) (644723 810069 -1.12866e+07) (63401.9 -151958 -1.12612e+07) (1.25233e+06 306448 -1.35029e+07) (-1.03292e+06 -233104 -5.60307e+06)
2050          (0.045741 -0.140071 -6.62194e+06) (1.15613e+06 864151 -1.26402e+07) (-887807 -1.60106e+06 -1.72961e+07) (629593 -111950 -7.52296e+06) (-2.01793e+06 -643503 -1.58983e+07) (524446 116385 -6.53077e+06) (19915.1 -337352 -9.56207e+06) (645872 810599 -1.13017e+07) (63577.6 -152303 -1.12911e+07) (1.25743e+06 308173 -1.3555e+07) (-1.03798e+06 -234221 -5.63164e+06)
2100          (0.0456145 -0.139766 -6.60375e+06) (1.15321e+06 861868 -1.26062e+07) (-885753 -1.59735e+06 -1.72552e+07) (628321 -111845 -7.50806e+06) (-2.01509e+06 -642536 -1.58755e+07) (524204 115998 -6.52566e+06) (20161.2 -337489 -9.56392e+06) (646893 811090 -1.13149e+07) (63722.1 -152597 -1.13165e+07) (1.26174e+06 309792 -1.35992e+07) (-1.04225e+06 -235164 -5.65576e+06)
2150          (0.0455065 -0.1394 -6.58773e+06) (1.15078e+06 859953 -1.25776e+07) (-883994 -1.59416e+06 -1.72202e+07) (627257 -111743 -7.49551e+06) (-2.01278e+06 -641741 -1.58565e+07) (523968 115648 -6.52126e+06) (20412.3 -337610 -9.56605e+06) (647725 811480 -1.13258e+07) (63847.3 -152844 -1.1338e+07) (1.26539e+06 311091 -1.36365e+07) (-1.04586e+06 -235961 -5.67614e+06)
2200          (0.0454136 -0.139125 -6.57455e+06) (1.14869e+06 858318 -1.25533e+07) (-882535 -1.59152e+06 -1.7191e+07) (626358 -111639 -7.48478e+06) (-2.01075e+06 -641051 -1.58401e+07) (523795 115368 -6.51766e+06) (20585.8 -337718 -9.56746e+06) (648468 811842 -1.13354e+07) (63944.7 -153060 -1.13562e+07) (1.26849e+06 312147 -1.36681e+07) (-1.04892e+06 -236636 -5.69333e+06)
2250          (0.0453346 -0.138872 -6.56336e+06) (1.14697e+06 856954 -1.25328e+07) (-881260 -1.58922e+06 -1.71657e+07) (625593 -111597 -7.47597e+06) (-2.00905e+06 -640464 -1.58262e+07) (523642 115136 -6.5146e+06) (20728.3 -337801 -9.56867e+06) (649069 812128 -1.13434e+07) (64041.5 -153233 -1.13714e+07) (1.27108e+06 313062 -1.36947e+07) (-1.05148e+06 -237201 -5.70785e+06)
2300          (0.0452692 -0.138702 -6.55395e+06) (1.14552e+06 855801 -1.25155e+07) (-880191 -1.58729e+06 -1.71445e+07) (624940 -111567 -7.46848e+06) (-2.00767e+06 -640000 -1.5815e+07) (523512 114904 -6.51188e+06) (20908.7 -337863 -9.57011e+06) (649587 812373 -1.13501e+07) (64102.6 -153394 -1.13846e+07) (1.27327e+06 313847 -1.37172e+07) (-1.05365e+06 -237679 -5.72009e+06)
2350          (0.0452164 -0.138536 -6.54577e+06) (1.14425e+06 854816 -1.25009e+07) (-879314 -1.5857e+06 -1.71269e+07) (624396 -111512 -7.46204e+06) (-2.00646e+06 -639579 -1.58052e+07) (523412 114757 -6.50975e+06) (20971.8 -337933 -9.57069e+06) (650039 812600 -1.1356e+07) (64178.9 -153510 -1.13953e+07) (1.27515e+06 314317 -1.37361e+07) (-1.05548e+06 -238084 -5.73041e+06)
2400          (0.0451747 -0.138353 -6.5386e+06) (1.14317e+06 853978 -1.24886e+07) (-878590 -1.58437e+06 -1.71122e+07) (623947 -111424 -7.45644e+06) (-2.00554e+06 -639264 -1.57974e+07) (523280 114591 -6.50778e+06) (21098.8 -337972 -9.57192e+06) (650365 812757 -1.13605e+07) (64231.9 -153617 -1.14045e+07) (1.2767e+06 314883 -1.37521e+07) (-1.05702e+06 -238426 -5.73915e+06)
2450          (0.0451329 -0.138247 -6.53329e+06) (1.14237e+06 853323 -1.24785e+07) (-877948 -1.58321e+06 -1.70995e+07) (623527 -111512 -7.4523e+06) (-2.00469e+06 -638980 -1.57906e+07) (523255 114429 -6.50607e+06) (21108.6 -338067 -9.5721e+06) (650719 812897 -1.13646e+07) (64260.1 -153722 -1.14125e+07) (1.27799e+06 315438 -1.37653e+07) (-1.05829e+06 -238704 -5.74636e+06)
2500          (0.0451008 -0.138147 -6.5286e+06) (1.14164e+06 852743 -1.24699e+07) (-877442 -1.5823e+06 -1.70894e+07) (623217 -111450 -7.44842e+06) (-2.00398e+06 -638728 -1.57847e+07) (523176 114360 -6.50474e+06) (21189.3 -338094 -9.57271e+06) (650942 812993 -1.13677e+07) (64321.2 -153777 -1.14185e+07) (1.27909e+06 315721 -1.37765e+07) (-1.05938e+06 -238943 -5.75248e+06)
2550          (0.045075 -0.138057 -6.52449e+06) (1.14096e+06 852235 -1.24625e+07) (-877028 -1.58153e+06 -1.70809e+07) (622962 -111363 -7.445e+06) (-2.00337e+06 -638516 -1.57797e+07) (523108 114284 -6.50373e+06) (21240.3 -338117 -9.57317e+06) (651142 813095 -1.13705e+07) (64356.9 -153836 -1.14239e+07) (1.28002e+06 316104 -1.3786e+07) (-1.06029e+06 -239146 -5.75767e+06)
2600          (0.0450477 -0.137999 -6.5213e+06) (1.14043e+06 851818 -1.24562e+07) (-876599 -1.58078e+06 -1.70728e+07) (622718 -111388 -7.44247e+06) (-2.00284e+06 -638343 -1.57757e+07) (523075 114224 -6.50289e+06) (21325 -338113 -9.57357e+06) (651367 813242 -1.13734e+07) (64371.8 -153896 -1.14287e+07) (1.2808e+06 316465 -1.37942e+07) (-1.06108e+06 -239321 -5.76208e+06)
2650          (0.0450326 -0.137919 -6.51812e+06) (1.13995e+06 851458 -1.24511e+07) (-876325 -1.58026e+06 -1.70669e+07) (622560 -111269 -7.43992e+06) (-2.00243e+06 -638196 -1.57721e+07) (522999 114154 -6.50214e+06) (21398.2 -338138 -9.57431e+06) (651486 813291 -1.1375e+07) (64394.8 -153938 -1.14325e+07) (1.28145e+06 316730 -1.38009e+07) (-1.06174e+06 -239466 -5.76575e+06)
2700          (0.0450149 -0.137881 -6.51602e+06) (1.13967e+06 851202 -1.24469e+07) (-876056 -1.57978e+06 -1.70616e+07) (622368 -111359 -7.43833e+06) (-2.00209e+06 -638078 -1.57692e+07) (523008 114076 -6.50122e+06) (21595 -338123 -9.57541e+06) (651636 813323 -1.13767e+07) (64415.5 -153980 -1.14358e+07) (1.282e+06 316765 -1.38063e+07) (-1.06225e+06 -239578 -5.76873e+06)
2750          (0.0450008 -0.137832 -6.51385e+06) (1.13933e+06 850948 -1.24432e+07) (-875809 -1.57934e+06 -1.70568e+07) (622221 -111365 -7.43674e+06) (-2.00183e+06 -637996 -1.57672e+07) (522970 114031 -6.50073e+06) (21479 -338183 -9.57495e+06) (651756 813403 -1.13783e+07) (64426.5 -154013 -1.14386e+07) (1.28247e+06 317035 -1.38112e+07) (-1.06273e+06 -239685 -5.77136e+06)
2800          (0.044989 -0.1378 -6.5122e+06) (1.13901e+06 850719 -1.244e+07) (-875635 -1.57901e+06 -1.70533e+07) (622149 -111243 -7.43516e+06) (-2.00145e+06 -637863 -1.57644e+07) (522933 114035 -6.50058e+06) (21444.5 -338183 -9.57464e+06) (651842 813470 -1.13796e+07) (64437.2 -154041 -1.14409e+07) (1.28288e+06 317041 -1.38153e+07) (-1.06312e+06 -239773 -5.77359e+06)
2850          (0.0449806 -0.137758 -6.51065e+06) (1.13882e+06 850561 -1.24376e+07) (-875471 -1.57872e+06 -1.70501e+07) (622048 -111255 -7.43412e+06) (-2.00127e+06 -637807 -1.57628e+07) (522912 113993 -6.50013e+06) (21524.3 -338176 -9.5751e+06) (651895 813491 -1.13804e+07) (64436.8 -154073 -1.1443e+07) (1.2832e+06 317073 -1.38186e+07) (-1.06344e+06 -239842 -5.77538e+06)
2900          (0.0449716 -0.137749 -6.50976e+06) (1.13869e+06 850431 -1.24355e+07) (-875362 -1.57851e+06 -1.70477e+07) (621955 -111291 -7.43327e+06) (-2.0011e+06 -637739 -1.57613e+07) (522918 113943 -6.49961e+06) (21408.3 -338261 -9.57469e+06) (651982 813493 -1.13812e+07) (64464.6 -154079 -1.14444e+07) (1.28345e+06 317404 -1.38212e+07) (-1.0637e+06 -239897 -5.77687e+06)
2950          (0.0449637 -0.137727 -6.50869e+06) (1.13852e+06 850303 -1.24336e+07) (-875220 -1.57828e+06 -1.70452e+07) (621872 -111311 -7.4325e+06) (-2.00102e+06 -637713 -1.57606e+07) (522887 113935 -6.49933e+06) (21536 -338213 -9.57541e+06) (652007 813527 -1.13818e+07) (64477.3 -154090 -1.14456e+07) (1.2837e+06 317345 -1.38237e+07) (-1.06394e+06 -239951 -5.77821e+06)
3000          (0.0449593 -0.137707 -6.50787e+06) (1.13842e+06 850215 -1.24322e+07) (-875151 -1.57814e+06 -1.70436e+07) (621815 -111319 -7.43188e+06) (-2.00088e+06 -637666 -1.57594e+07) (522894 113901 -6.49899e+06) (21651.1 -338205 -9.57605e+06) (652073 813533 -1.13824e+07) (64480.1 -154108 -1.14468e+07) (1.28387e+06 317494 -1.38255e+07) (-1.06411e+06 -239988 -5.77922e+06)
3050          (0.0449508 -0.137712 -6.5075e+06) (1.13827e+06 850110 -1.24307e+07) (-875058 -1.57798e+06 -1.70419e+07) (621769 -111297 -7.43126e+06) (-2.00078e+06 -637625 -1.57586e+07) (522865 113918 -6.4989e+06) (21547.1 -338229 -9.5755e+06) (652101 813571 -1.1383e+07) (64497.6 -154106 -1.14476e+07) (1.28404e+06 317630 -1.38273e+07) (-1.06429e+06 -240029 -5.78019e+06)
3100          (0.0449471 -0.137692 -6.50677e+06) (1.13817e+06 850039 -1.24297e+07) (-874987 -1.57786e+06 -1.70407e+07) (621733 -111282 -7.43077e+06) (-2.0007e+06 -637605 -1.57582e+07) (522851 113907 -6.49881e+06) (21571.5 -338223 -9.57568e+06) (652128 813603 -1.13834e+07) (64496.2 -154117 -1.14484e+07) (1.28418e+06 317580 -1.38287e+07) (-1.06442e+06 -240060 -5.78092e+06)
3150          (0.0449467 -0.137672 -6.50613e+06) (1.13815e+06 850001 -1.24289e+07) (-874957 -1.57779e+06 -1.70397e+07) (621691 -111316 -7.43047e+06) (-2.00062e+06 -637576 -1.57573e+07) (522873 113859 -6.49844e+06) (21674.4 -338223 -9.57624e+06) (652172 813572 -1.13837e+07) (64496 -154135 -1.14492e+07) (1.28429e+06 317651 -1.38297e+07) (-1.06452e+06 -240078 -5.78153e+06)
3200          (0.0449447 -0.137663 -6.50577e+06) (1.13809e+06 849954 -1.24283e+07) (-874923 -1.57773e+06 -1.7039e+07) (621674 -111295 -7.43015e+06) (-2.00054e+06 -637540 -1.57566e+07) (522862 113879 -6.49841e+06) (21499 -338281 -9.57531e+06) (652188 813581 -1.13839e+07) (64530.9 -154112 -1.14492e+07) (1.28437e+06 317700 -1.38305e+07) (-1.06461e+06 -240098 -5.78202e+06)
3250          (0.0449413 -0.137664 -6.50559e+06) (1.13801e+06 849905 -1.24276e+07) (-874879 -1.57765e+06 -1.70382e+07) (621658 -111274 -7.42985e+06) (-2.00047e+06 -637524 -1.57561e+07) (522852 113854 -6.49834e+06) (21690.3 -338214 -9.57627e+06) (652214 813613 -1.13843e+07) (64496.8 -154145 -1.14502e+07) (1.28446e+06 317699 -1.38315e+07) (-1.0647e+06 -240119 -5.78248e+06)
3300          (0.044938 -0.137667 -6.50549e+06) (1.13797e+06 849869 -1.2427e+07) (-874862 -1.57761e+06 -1.70377e+07) (621638 -111279 -7.42963e+06) (-2.00041e+06 -637496 -1.57556e+07) (522863 113844 -6.49821e+06) (21604 -338268 -9.57585e+06) (652261 813618 -1.13846e+07) (64511.7 -154140 -1.14503e+07) (1.28454e+06 317788 -1.38321e+07) (-1.06477e+06 -240135 -5.78281e+06)
3350          (0.0449393 -0.137638 -6.50475e+06) (1.13791e+06 849838 -1.24267e+07) (-874807 -1.57753e+06 -1.70369e+07) (621636 -111232 -7.42937e+06) (-2.00036e+06 -637489 -1.57554e+07) (522829 113863 -6.49836e+06) (21567.3 -338228 -9.5756e+06) (652237 813650 -1.13847e+07) (64495 -154155 -1.14509e+07) (1.28458e+06 317744 -1.38327e+07) (-1.06483e+06 -240150 -5.7832e+06)
3400          (0.0449403 -0.137627 -6.50447e+06) (1.13792e+06 849834 -1.24265e+07) (-874797 -1.5775e+06 -1.70365e+07) (621596 -111302 -7.42935e+06) (-2.00041e+06 -637511 -1.57556e+07) (522838 113825 -6.49809e+06) (21599.9 -338244 -9.5759e+06) (652244 813620 -1.13846e+07) (64496.2 -154165 -1.14513e+07) (1.28461e+06 317722 -1.38331e+07) (-1.06485e+06 -240150 -5.78341e+06)
3450          (0.0449363 -0.137644 -6.50472e+06) (1.13792e+06 849818 -1.24262e+07) (-874808 -1.57752e+06 -1.70367e+07) (621612 -111255 -7.42916e+06) (-2.00028e+06 -637453 -1.57546e+07) (522856 113851 -6.49807e+06) (21638.8 -338237 -9.57595e+06) (652268 813614 -1.13848e+07) (64513 -154151 -1.14511e+07) (1.28466e+06 317825 -1.38334e+07) (-1.0649e+06 -240162 -5.78356e+06)
3500          (0.0449355 -0.137644 -6.50466e+06) (1.13786e+06 849794 -1.24261e+07) (-874755 -1.57743e+06 -1.70358e+07) (621585 -111294 -7.42919e+06) (-2.0004e+06 -637510 -1.57556e+07) (522819 113829 -6.49814e+06) (21511 -338254 -9.57544e+06) (652253 813643 -1.13848e+07) (64499.5 -154164 -1.14515e+07) (1.28466e+06 317665 -1.38336e+07) (-1.06489e+06 -240162 -5.78373e+06)
3550          (0.0449377 -0.137622 -6.50419e+06) (1.13788e+06 849794 -1.24259e+07) (-874781 -1.57747e+06 -1.70362e+07) (621598 -111249 -7.42899e+06) (-2.00026e+06 -637449 -1.57544e+07) (522849 113833 -6.49807e+06) (21563.9 -338281 -9.5755e+06) (652258 813618 -1.13848e+07) (64501.6 -154164 -1.14516e+07) (1.2847e+06 317855 -1.38339e+07) (-1.06494e+06 -240173 -5.78384e+06)
3600          (0.0449352 -0.137634 -6.50436e+06) (1.13787e+06 849782 -1.24257e+07) (-874757 -1.57742e+06 -1.70356e+07) (621566 -111306 -7.42903e+06) (-2.00034e+06 -637481 -1.5755e+07) (522838 113821 -6.49793e+06) (21537.5 -338284 -9.57556e+06) (652265 813614 -1.13849e+07) (64512.6 -154161 -1.14516e+07) (1.28471e+06 317773 -1.38341e+07) (-1.06494e+06 -240171 -5.78395e+06)
3650          (0.0449352 -0.137634 -6.50436e+06) (1.13787e+06 849782 -1.24257e+07) (-874757 -1.57742e+06 -1.70356e+07) (621566 -111306 -7.42903e+06) (-2.00034e+06 -637481 -1.5755e+07) (522838 113821 -6.49793e+06) (21537.5 -338284 -9.57556e+06) (652265 813614 -1.13849e+07) (64512.6 -154161 -1.14516e+07) (1.28471e+06 317773 -1.38341e+07) (-1.06494e+06 -240171 -5.78395e+06)
3700          (0.0449352 -0.137634 -6.50436e+06) (1.13787e+06 849782 -1.24257e+07) (-874757 -1.57742e+06 -1.70356e+07) (621566 -111306 -7.42903e+06) (-2.00034e+06 -637481 -1.5755e+07) (522838 113821 -6.49793e+06) (21537.5 -338284 -9.57556e+06) (652265 813614 -1.13849e+07) (64512.6 -154161 -1.14516e+07) (1.28471e+06 317773 -1.38341e+07) (-1.06494e+06 -240171 -5.78395e+06)
3750          (0.0449352 -0.137634 -6.50436e+06) (1.13787e+06 849782 -1.24257e+07) (-874757 -1.57742e+06 -1.70356e+07) (621566 -111306 -7.42903e+06) (-2.00034e+06 -637481 -1.5755e+07) (522838 113821 -6.49793e+06) (21537.5 -338284 -9.57556e+06) (652265 813614 -1.13849e+07) (64512.6 -154161 -1.14516e+07) (1.28471e+06 317773 -1.38341e+07) (-1.06494e+06 -240171 -5.78395e+06)
3800          (0.0449352 -0.137634 -6.50436e+06) (1.13787e+06 849782 -1.24257e+07) (-874757 -1.57742e+06 -1.70356e+07) (621566 -111306 -7.42903e+06) (-2.00034e+06 -637481 -1.5755e+07) (522838 113821 -6.49793e+06) (21537.5 -338284 -9.57556e+06) (652265 813614 -1.13849e+07) (64512.6 -154161 -1.14516e+07) (1.28471e+06 317773 -1.38341e+07) (-1.06494e+06 -240171 -5.78395e+06)
3850          (0.0449352 -0.137634 -6.50436e+06) (1.13787e+06 849782 -1.24257e+07) (-874757 -1.57742e+06 -1.70356e+07) (621566 -111306 -7.42903e+06) (-2.00034e+06 -637481 -1.5755e+07) (522838 113821 -6.49793e+06) (21537.5 -338284 -9.57556e+06) (652265 813614 -1.13849e+07) (64512.6 -154161 -1.14516e+07) (1.28471e+06 317773 -1.38341e+07) (-1.06494e+06 -240171 -5.78395e+06)
3900          (0.0449352 -0.137634 -6.50436e+06) (1.13787e+06 849782 -1.24257e+07) (-874757 -1.57742e+06 -1.70356e+07) (621566 -111306 -7.42903e+06) (-2.00034e+06 -637481 -1.5755e+07) (522838 113821 -6.49793e+06) (21537.5 -338284 -9.57556e+06) (652265 813614 -1.13849e+07) (64512.6 -154161 -1.14516e+07) (1.28471e+06 317773 -1.38341e+07) (-1.06494e+06 -240171 -5.78395e+06)
3950          (0.0449352 -0.137634 -6.50436e+06) (1.13787e+06 849782 -1.24257e+07) (-874757 -1.57742e+06 -1.70356e+07) (621566 -111306 -7.42903e+06) (-2.00034e+06 -637481 -1.5755e+07) (522838 113821 -6.49793e+06) (21537.5 -338284 -9.57556e+06) (652265 813614 -1.13849e+07) (64512.6 -154161 -1.14516e+07) (1.28471e+06 317773 -1.38341e+07) (-1.06494e+06 -240171 -5.78395e+06)