# Probe 0 (0.0015 0.0015 0)
# Probe 1 (0.0015 0.0015 0.002)
# Probe 2 (0.0015 0.0015 0.004)
# Probe 3 (0.0015 0.0015 0.006)
# Probe 4 (0.0015 0.0015 0.008)
# Probe 5 (0.0015 0.0015 0.01)
# Probe 6 (0.0015 0.0015 0.012)
# Probe 7 (0.0015 0.0015 0.014)
# Probe 8 (0.0015 0.0015 0.016)
# Probe 9 (0.0015 0.0015 0.018)
# Probe 10 (0.0015 0.0015 0.02)
# Time        0             1             2             3             4             5             6             7             8             9             10           
50            (-2.04586e-13 1.3557e-17 -1.76558e-13) (-5.55581e-13 -5.71031e-13 8.26425e-13) (-4.17207e-15 -1.25468e-14 8.27431e-13) (-4.22858e-14 -2.27324e-14 1.75899e-12) (3.29544e-14 3.80409e-14 2.95069e-12) (-2.68611e-14 6.34101e-15 3.57521e-12) (3.74063e-14 2.49863e-15 4.42699e-12) (-1.62671e-14 -2.61125e-14 4.56491e-12) (-2.73774e-15 -4.3747e-15 4.7011e-12) (-4.05426e-14 -3.39422e-14 5.26493e-12) (-2.40604e-15 2.4223e-15 4.36394e-12)
100           (1.97377e-12 3.67445e-18 3.76426e-12) (1.22372e-12 1.1332e-12 8.70705e-12) (1.21584e-13 -2.01028e-14 1.50128e-11) (-3.99344e-13 -2.29354e-13 1.62069e-11) (2.10022e-13 2.19872e-13 1.62855e-11) (-1.12096e-13 3.20507e-14 1.42605e-11) (1.21465e-13 1.0564e-14 1.41175e-11) (-3.84806e-14 -6.53373e-14 1.23483e-11) (-5.44981e-15 -1.19157e-14 1.13483e-11) (-9.24602e-14 -7.71347e-14 1.18837e-11) (-5.27206e-15 5.33953e-15 9.62554e-12)
150           (-1.01126e-12 -3.3508e-18 -1.56565e-12) (-3.27568e-13 -5.00642e-13 1.32735e-11) (1.19729e-13 -7.21875e-14 2.0854e-11) (-4.73027e-13 -2.75678e-13 1.94312e-11) (2.36631e-13 2.4622e-13 1.83027e-11) (-1.24281e-13 3.53796e-14 1.59051e-11) (1.3851e-13 1.14492e-14 1.61998e-11) (-4.8767e-14 -8.09678e-14 1.48614e-11) (-7.67612e-15 -1.4219e-14 1.4328e-11) (-1.20079e-13 -1.00367e-13 1.55273e-11) (-6.98829e-15 7.06396e-15 1.27418e-11)
200           (-6.75776e-13 -1.52715e-17 2.89304e-14) (-1.47761e-12 -1.729e-12 1.84151e-11) (1.12171e-13 -1.04555e-13 2.38297e-11) (-5.18919e-13 -3.03043e-13 2.13409e-11) (2.60531e-13 2.71791e-13 2.02198e-11) (-1.38101e-13 3.92283e-14 1.76873e-11) (1.53877e-13 1.28242e-14 1.79682e-11) (-5.29541e-14 -8.83666e-14 1.63253e-11) (-8.11164e-15 -1.56618e-14 1.55638e-11) (-1.29542e-13 -1.08218e-13 1.67256e-11) (-7.51223e-15 7.57899e-15 1.36805e-11)
250           (1.18195e-12 3.94946e-18 1.71631e-12) (1.33124e-12 1.35088e-12 -2.22626e-13) (5.81058e-14 7.61175e-15 4.75461e-12) (-1.95681e-13 -1.09123e-13 7.7364e-12) (1.17431e-13 1.2751e-13 9.52336e-12) (-7.58611e-14 1.96068e-14 9.76637e-12) (9.48637e-14 7.04336e-15 1.11039e-11) (-3.77996e-14 -6.15926e-14 1.09421e-11) (-6.27945e-15 -1.06237e-14 1.10196e-11) (-9.43659e-14 -7.894e-14 1.22213e-11) (-5.51227e-15 5.60391e-15 1.0102e-11)
300           (-6.68181e-13 -5.20325e-18 1.82295e-12) (-3.70732e-12 -4.08094e-12 2.6772e-11) (5.72062e-14 -1.44685e-13 2.37808e-11) (-3.51819e-13 -2.14625e-13 1.50879e-11) (1.45923e-13 1.45212e-13 1.0791e-11) (-5.89233e-14 1.91216e-14 7.52071e-12) (5.43243e-14 5.42797e-15 6.30841e-12) (-1.37202e-14 -2.43346e-14 4.89396e-12) (-1.70125e-15 -4.59583e-15 4.14004e-12) (-3.22782e-14 -2.68657e-14 4.12936e-12) (-1.80946e-15 1.82151e-15 3.29051e-12)
350           (1.97064e-12 -2.2012e-18 5.22236e-12) (-7.72891e-13 -9.53917e-13 1.45469e-11) (7.46963e-14 -5.6565e-14 1.47683e-11) (-3.28748e-13 -1.90406e-13 1.36648e-11) (1.79242e-13 1.92575e-13 1.453e-11) (-1.10547e-13 2.89541e-14 1.44058e-11) (1.38751e-13 1.01772e-14 1.63095e-11) (-5.61153e-14 -9.10874e-14 1.61445e-11) (-9.3598e-15 -1.55493e-14 1.63389e-11) (-1.40186e-13 -1.1732e-13 1.81781e-11) (-8.24587e-15 8.34543e-15 1.50423e-11)
400           (-5.03563e-13 -1.11491e-17 5.5014e-13) (-1.76204e-12 -2.02919e-12 1.86406e-11) (8.78367e-14 -1.03607e-13 2.1359e-11) (-4.23161e-13 -2.49385e-13 1.73459e-11) (2.04122e-13 2.12059e-13 1.57408e-11) (-1.07878e-13 3.03196e-14 1.38023e-11) (1.23319e-13 9.84404e-15 1.44338e-11) (-4.57825e-14 -7.53235e-14 1.36192e-11) (-7.48129e-15 -1.30656e-14 1.34241e-11) (-1.13838e-13 -9.52033e-14 1.47457e-11) (-6.66804e-15 6.74113e-15 1.21575e-11)
450           (-4.25749e-13 -1.14593e-18 -7.60991e-13) (-3.32244e-14 -1.03665e-13 6.19521e-12) (7.00694e-14 -3.06615e-14 1.07574e-11) (-2.94015e-13 -1.67804e-13 1.20986e-11) (1.6723e-13 1.80354e-13 1.3568e-11) (-1.0438e-13 2.73324e-14 1.35294e-11) (1.29789e-13 9.67149e-15 1.52156e-11) (-5.13922e-14 -8.37851e-14 1.49184e-11) (-8.47118e-15 -1.44589e-14 1.49751e-11) (-1.28001e-13 -1.0708e-13 1.65732e-11) (-7.47269e-15 7.59771e-15 1.36878e-11)
500           (-2.37688e-12 8.84422e-18 -4.29171e-12) (-1.02797e-12 -1.07233e-12 1.89879e-12) (2.65525e-15 -4.89087e-14 5.26209e-12) (-1.27125e-13 -7.40414e-14 5.02485e-12) (6.48039e-14 6.84211e-14 5.06356e-12) (-3.76324e-14 1.00713e-14 4.79965e-12) (4.56295e-14 3.40242e-15 5.34606e-12) (-1.85211e-14 -3.0052e-14 5.3014e-12) (-3.2242e-15 -5.11883e-15 5.4178e-12) (-4.6836e-14 -3.91992e-14 6.08403e-12) (-2.75953e-15 2.80048e-15 5.05553e-12)
550           (1.08527e-12 -9.95192e-18 3.4602e-12) (-1.10442e-12 -1.28115e-12 1.34567e-11) (5.62105e-14 -6.51073e-14 1.37854e-11) (-2.63192e-13 -1.5555e-13 1.09718e-11) (1.26254e-13 1.30431e-13 9.70531e-12) (-6.33643e-14 1.85053e-14 8.09756e-12) (6.77624e-14 5.90768e-15 7.89747e-12) (-2.16526e-14 -3.66435e-14 6.90963e-12) (-3.12656e-15 -6.63962e-15 6.38149e-12) (-5.21733e-14 -4.35358e-14 6.71297e-12) (-2.9836e-15 3.02321e-15 5.44787e-12)
600           (1.708e-12 -4.86353e-18 4.21907e-12) (-2.58417e-13 -4.59384e-13 1.68085e-11) (1.18585e-13 -4.88963e-14 1.89451e-11) (-4.06292e-13 -2.36754e-13 1.70216e-11) (2.10147e-13 2.21504e-13 1.66095e-11) (-1.17418e-13 3.23437e-14 1.51783e-11) (1.37841e-13 1.08636e-14 1.61422e-11) (-5.13642e-14 -8.4514e-14 1.52836e-11) (-8.24819e-15 -1.47133e-14 1.50298e-11) (-1.27227e-13 -1.06383e-13 1.64583e-11) (-7.41834e-15 7.51541e-15 1.35479e-11)
650           (2.2167e-12 7.35844e-18 4.74731e-12) (1.55072e-13 1.32189e-13 2.01795e-12) (1.21075e-15 4.95957e-16 4.56455e-14) (-2.73937e-14 -1.35858e-14 9.7107e-13) (2.75514e-14 3.39503e-14 2.64758e-12) (-2.96057e-14 6.10234e-15 3.95449e-12) (4.67048e-14 2.63858e-15 5.55982e-12) (-2.35424e-14 -3.69755e-14 6.23368e-12) (-4.31351e-15 -5.9856e-15 6.77095e-12) (-5.989e-14 -5.02037e-14 7.81238e-12) (-3.59575e-15 3.62711e-15 6.54255e-12)
700           (-2.26845e-12 7.60991e-18 -3.81097e-12) (-1.36831e-12 -1.46289e-12 5.59708e-12) (1.58937e-14 -5.90218e-14 8.12153e-12) (-1.71587e-13 -1.00618e-13 6.9838e-12) (8.54836e-14 8.94942e-14 6.65988e-12) (-4.65342e-14 1.30206e-14 5.95895e-12) (5.27343e-14 4.31551e-15 6.17191e-12) (-1.84727e-14 -3.07075e-14 5.6601e-12) (-2.81957e-15 -5.43647e-15 5.3997e-12) (-4.48259e-14 -3.74444e-14 5.78676e-12) (-2.59413e-15 2.61911e-15 4.72642e-12)
750           (1.38565e-12 -1.28097e-17 6.52263e-13) (3.30835e-12 3.45861e-12 -9.06588e-12) (7.79919e-14 6.12655e-14 3.39827e-14) (-2.00526e-13 -1.0599e-13 7.50801e-12) (1.38455e-13 1.53285e-13 1.14173e-11) (-9.69572e-14 2.43694e-14 1.24528e-11) (1.23484e-13 9.04699e-15 1.44547e-11) (-4.9527e-14 -8.06564e-14 1.43202e-11) (-8.20415e-15 -1.38957e-14 1.44215e-11) (-1.23327e-13 -1.03161e-13 1.59764e-11) (-7.21845e-15 7.32406e-15 1.31995e-11)
800           (2.60358e-12 -8.56073e-20 7.00665e-12) (-1.19255e-12 -1.40863e-12 1.6613e-11) (6.27708e-14 -7.34376e-14 1.54166e-11) (-3.22421e-13 -1.87772e-13 1.32976e-11) (1.71431e-13 1.83794e-13 1.38491e-11) (-1.05581e-13 2.75902e-14 1.37446e-11) (1.32934e-13 9.6571e-15 1.56573e-11) (-5.43963e-14 -8.80852e-14 1.55804e-11) (-9.14632e-15 -1.49481e-14 1.58145e-11) (-1.35755e-13 -1.13616e-13 1.76174e-11) (-8.01027e-15 8.08164e-15 1.45857e-11)
850           (2.44312e-12 7.3199e-18 6.02981e-12) (-1.69421e-13 -4.1346e-13 1.98058e-11) (1.27438e-13 -6.24456e-14 2.15317e-11) (-4.27866e-13 -2.51792e-13 1.77957e-11) (2.0856e-13 2.16983e-13 1.6183e-11) (-1.10599e-13 3.10036e-14 1.42425e-11) (1.27917e-13 1.0071e-14 1.49984e-11) (-4.84608e-14 -7.94258e-14 1.42854e-11) (-8.03444e-15 -1.36876e-14 1.42022e-11) (-1.21051e-13 -1.01262e-13 1.56918e-11) (-7.09895e-15 7.18563e-15 1.29648e-11)
900           (1.88565e-12 1.83297e-18 3.20911e-12) (1.25742e-12 1.24034e-12 3.40125e-12) (8.50028e-14 8.67479e-15 7.84146e-12) (-2.78609e-13 -1.55709e-13 1.13737e-11) (1.71192e-13 1.87013e-13 1.41001e-11) (-1.12251e-13 2.89602e-14 1.45805e-11) (1.41082e-13 1.0509e-14 1.65357e-11) (-5.54024e-14 -9.04944e-14 1.61642e-11) (-9.00664e-15 -1.56513e-14 1.61322e-11) (-1.37349e-13 -1.14868e-13 1.77732e-11) (-8.00772e-15 8.1382e-15 1.46539e-11)
950           (4.37541e-12 -3.28712e-18 1.11832e-11) (-1.45004e-12 -1.78083e-12 2.55072e-11) (9.15364e-14 -8.73186e-14 2.09916e-11) (-3.61708e-13 -2.15181e-13 1.5145e-11) (1.72022e-13 1.79475e-13 1.34534e-11) (-9.32979e-14 2.57279e-14 1.20914e-11) (1.10907e-13 8.45584e-15 1.30565e-11) (-4.34875e-14 -7.08059e-14 1.26532e-11) (-7.24299e-15 -1.20722e-14 1.26882e-11) (-1.08386e-13 -9.06941e-14 1.40638e-11) (-6.39262e-15 6.44232e-15 1.16281e-11)
1000          (8.88125e-13 -3.33306e-18 4.79934e-12) (-3.39614e-12 -3.78738e-12 2.78231e-11) (6.74822e-14 -1.32959e-13 2.35688e-11) (-3.86338e-13 -2.31236e-13 1.63458e-11) (1.82807e-13 1.91093e-13 1.43934e-11) (-9.99628e-14 2.74179e-14 1.30341e-11) (1.20532e-13 9.06541e-15 1.42027e-11) (-4.78875e-14 -7.78203e-14 1.38621e-11) (-7.99792e-15 -1.32132e-14 1.3961e-11) (-1.19497e-13 -9.99956e-14 1.55089e-11) (-7.05854e-15 7.10783e-15 1.28313e-11)
1050          (4.16671e-13 2.8687e-18 7.80888e-14) (1.44649e-12 1.41174e-12 3.77032e-12) (1.09184e-13 -1.01347e-14 1.21053e-11) (-3.7262e-13 -2.11736e-13 1.48964e-11) (2.04944e-13 2.17577e-13 1.61447e-11) (-1.187e-13 3.23943e-14 1.51612e-11) (1.38046e-13 1.10677e-14 1.61089e-11) (-4.9924e-14 -8.26902e-14 1.50677e-11) (-7.83873e-15 -1.45711e-14 1.46282e-11) (-1.22892e-13 -1.02706e-13 1.58756e-11) (-7.1297e-15 7.22886e-15 1.3026e-11)
1100          (2.01484e-12 1.01907e-17 5.04565e-12) (-3.82143e-13 -6.06498e-13 1.79639e-11) (1.21449e-13 -6.48266e-14 2.0715e-11) (-4.61551e-13 -2.68153e-13 1.90002e-11) (2.38446e-13 2.50928e-13 1.87042e-11) (-1.32264e-13 3.67144e-14 1.69612e-11) (1.5175e-13 1.23031e-14 1.77251e-11) (-5.40133e-14 -8.96563e-14 1.64151e-11) (-8.38986e-15 -1.58427e-14 1.58237e-11) (-1.32411e-13 -1.10635e-13 1.70957e-11) (-7.65991e-15 7.77323e-15 1.40045e-11)
1150          (-4.30397e-13 1.33503e-17 -2.2854e-12) (1.4542e-12 1.64489e-12 -1.42033e-11) (-3.27594e-14 5.28586e-14 -1.07175e-11) (1.02387e-13 6.71202e-14 -4.70604e-12) (-2.24361e-14 -1.57569e-14 -1.09697e-12) (-8.52298e-15 -3.79962e-16 1.19716e-12) (2.42649e-14 8.0693e-16 2.8895e-12) (-1.52807e-14 -2.34826e-14 3.77263e-12) (-2.93904e-15 -3.70818e-15 4.35786e-12) (-3.95203e-14 -3.31597e-14 5.16252e-12) (-2.38292e-15 2.41663e-15 4.35587e-12)
1200          (2.15122e-12 -4.76484e-18 6.13776e-12) (-1.24912e-12 -1.53259e-12 2.22761e-11) (1.0634e-13 -8.45989e-14 2.18814e-11) (-4.26305e-13 -2.5073e-13 1.78342e-11) (2.14187e-13 2.25406e-13 1.69008e-11) (-1.19888e-13 3.28042e-14 1.55119e-11) (1.42689e-13 1.10388e-14 1.67251e-11) (-5.44511e-14 -8.92344e-14 1.60385e-11) (-8.86294e-15 -1.54465e-14 1.5907e-11) (-1.35172e-13 -1.13044e-13 1.74975e-11) (-7.89245e-15 8.00093e-15 1.44246e-11)
1250          (2.38963e-12 5.11847e-18 8.23221e-12) (-3.00847e-12 -3.52321e-12 3.89881e-11) (1.67355e-13 -1.68908e-13 3.85583e-11) (-7.11982e-13 -4.21896e-13 2.97735e-11) (3.37442e-13 3.48015e-13 2.59034e-11) (-1.68674e-13 4.91438e-14 2.15891e-11) (1.82337e-13 1.56341e-14 2.12782e-11) (-6.04607e-14 -1.01548e-13 1.89419e-11) (-9.07224e-15 -1.81643e-14 1.78093e-11) (-1.47222e-13 -1.22934e-13 1.89816e-11) (-8.48453e-15 8.58336e-15 1.54815e-11)
1300          (9.76369e-13 -9.38603e-19 2.03813e-12) (3.13015e-13 2.48144e-13 5.62897e-12) (6.91767e-14 -2.22836e-14 9.5122e-12) (-2.93761e-13 -1.65755e-13 1.18669e-11) (1.73117e-13 1.8801e-13 1.41348e-11) (-1.11407e-13 2.89309e-14 1.44306e-11) (1.38692e-13 1.03751e-14 1.62806e-11) (-5.42271e-14 -8.85679e-14 1.58571e-11) (-8.77664e-15 -1.52982e-14 1.57727e-11) (-1.33894e-13 -1.11979e-13 1.73327e-11) (-7.83187e-15 7.91947e-15 1.42781e-11)
1350          (-2.68496e-12 -4.68389e-18 -6.21692e-12) (5.6177e-13 5.86002e-13 -2.50485e-12) (6.14035e-14 -2.81702e-14 8.23437e-12) (-3.19174e-13 -1.79316e-13 1.24976e-11) (1.84001e-13 1.9753e-13 1.4662e-11) (-1.12672e-13 2.9975e-14 1.4406e-11) (1.35134e-13 1.04909e-14 1.57878e-11) (-5.09018e-14 -8.37192e-14 1.50972e-11) (-8.19681e-15 -1.46089e-14 1.48778e-11) (-1.25905e-13 -1.05267e-13 1.62876e-11) (-7.33421e-15 7.43248e-15 1.34052e-11)
1400          (1.65866e-12 8.1713e-18 5.21609e-12) (-1.25317e-12 -1.48535e-12 1.79499e-11) (7.71942e-14 -8.63695e-14 1.83299e-11) (-3.74e-13 -2.19362e-13 1.5334e-11) (1.86267e-13 1.94958e-13 1.44856e-11) (-1.01358e-13 2.82427e-14 1.29552e-11) (1.16024e-13 9.38496e-15 1.35362e-11) (-4.17011e-14 -6.91177e-14 1.26037e-11) (-6.586e-15 -1.21961e-14 1.22296e-11) (-1.02795e-13 -8.58981e-14 1.32785e-11) (-5.95293e-15 6.04873e-15 1.08985e-11)
1450          (-4.85547e-14 -8.45476e-18 1.11931e-12) (-1.3623e-12 -1.5466e-12 1.29697e-11) (6.31793e-14 -7.92332e-14 1.55264e-11) (-3.67573e-13 -2.12111e-13 1.49705e-11) (2.00769e-13 2.15635e-13 1.61844e-11) (-1.23982e-13 3.25285e-14 1.60538e-11) (1.53737e-13 1.14605e-14 1.80463e-11) (-6.07586e-14 -9.90382e-14 1.7666e-11) (-9.96551e-15 -1.70276e-14 1.76859e-11) (-1.50738e-13 -1.2609e-13 1.95269e-11) (-8.83293e-15 8.93979e-15 1.6114e-11)
1500          (3.80053e-12 -3.06085e-18 9.36176e-12) (-8.48355e-13 -1.08038e-12 1.85496e-11) (8.31639e-14 -6.17288e-14 1.64529e-11) (-3.58888e-13 -2.07892e-13 1.48459e-11) (1.94384e-13 2.08185e-13 1.56704e-11) (-1.17467e-13 3.12566e-14 1.52691e-11) (1.43507e-13 1.09448e-14 1.68455e-11) (-5.493e-14 -8.99918e-14 1.62064e-11) (-8.77969e-15 -1.55621e-14 1.59999e-11) (-1.35288e-13 -1.13111e-13 1.75089e-11) (-7.91995e-15 7.99124e-15 1.44022e-11)
1550          (1.56578e-12 -5.45767e-19 5.52778e-12) (-1.98441e-12 -2.31544e-12 2.4667e-11) (9.93069e-14 -1.1698e-13 2.46219e-11) (-4.6109e-13 -2.73051e-13 1.91756e-11) (2.20576e-13 2.28689e-13 1.70604e-11) (-1.14359e-13 3.25387e-14 1.47261e-11) (1.29032e-13 1.04966e-14 1.51187e-11) (-4.63859e-14 -7.67219e-14 1.40122e-11) (-7.36424e-15 -1.33731e-14 1.36122e-11) (-1.14472e-13 -9.56916e-14 1.48151e-11) (-6.68939e-15 6.7457e-15 1.21744e-11)
1600          (2.20447e-12 -7.6921e-18 4.54662e-12) (7.01982e-13 6.5072e-13 5.56472e-12) (6.91997e-14 -1.29138e-14 8.54386e-12) (-2.77066e-13 -1.55541e-13 1.11745e-11) (1.68001e-13 1.84086e-13 1.38766e-11) (-1.1299e-13 2.86473e-14 1.46762e-11) (1.45059e-13 1.04688e-14 1.70516e-11) (-5.92312e-14 -9.60732e-14 1.70037e-11) (-9.85356e-15 -1.64271e-14 1.72033e-11) (-1.47349e-13 -1.23287e-13 1.91e-11) (-8.65143e-15 8.76224e-15 1.57903e-11)
1650          (2.96732e-12 -1.26854e-17 8.71848e-12) (-2.49301e-12 -2.86218e-12 2.7211e-11) (8.17104e-14 -1.12996e-13 2.27402e-11) (-3.98019e-13 -2.36261e-13 1.66503e-11) (1.93513e-13 2.0311e-13 1.524e-11) (-1.0773e-13 2.94126e-14 1.39682e-11) (1.29252e-13 9.8451e-15 1.51881e-11) (-5.03872e-14 -8.22173e-14 1.47084e-11) (-8.32054e-15 -1.40916e-14 1.47009e-11) (-1.2533e-13 -1.0484e-13 1.6248e-11) (-7.36709e-15 7.439e-15 1.34185e-11)
1700          (1.72082e-12 -3.76992e-18 4.15778e-12) (-6.01951e-14 -2.28421e-13 1.38274e-11) (1.00717e-13 -4.70494e-14 1.64011e-11) (-3.69997e-13 -2.14801e-13 1.52666e-11) (1.92784e-13 2.03688e-13 1.52383e-11) (-1.09689e-13 2.9904e-14 1.41617e-11) (1.30435e-13 1.00868e-14 1.5291e-11) (-4.98689e-14 -8.1691e-14 1.46732e-11) (-8.17217e-15 -1.40995e-14 1.45827e-11) (-1.24114e-13 -1.03803e-13 1.60765e-11) (-7.2659e-15 7.35559e-15 1.32667e-11)
1750          (1.1324e-12 1.0889e-18 1.14923e-12) (1.64096e-12 1.68926e-12 -2.48926e-12) (6.3367e-14 2.36183e-14 3.26115e-12) (-2.10752e-13 -1.14685e-13 8.22331e-12) (1.37975e-13 1.52189e-13 1.14058e-11) (-9.48329e-14 2.40174e-14 1.2245e-11) (1.20602e-13 8.86754e-15 1.41283e-11) (-4.79826e-14 -7.82301e-14 1.39279e-11) (-7.85391e-15 -1.35103e-14 1.39589e-11) (-1.19017e-13 -9.95402e-14 1.54078e-11) (-6.95403e-15 7.05036e-15 1.27114e-11)
1800          (-2.82658e-13 1.14982e-17 4.20267e-13) (-1.29071e-12 -1.38924e-12 7.09591e-12) (5.57317e-16 -3.47083e-14 4.58e-12) (-4.69108e-14 -2.95986e-14 2.28579e-12) (2.24253e-14 2.50563e-14 2.03909e-12) (-1.73433e-14 3.79181e-15 2.43078e-12) (2.85379e-14 1.44487e-15 3.44212e-12) (-1.60849e-14 -2.48274e-14 4.07034e-12) (-3.144e-15 -3.87316e-15 4.6313e-12) (-4.20174e-14 -3.52787e-14 5.50014e-12) (-2.55453e-15 2.58263e-15 4.65089e-12)
1850          (-3.95778e-13 -9.91831e-18 -2.07022e-13) (-7.04453e-13 -7.65351e-13 4.5558e-12) (1.59079e-14 -3.39965e-14 5.4891e-12) (-1.24494e-13 -7.22554e-14 5.15785e-12) (6.716e-14 7.16382e-14 5.37686e-12) (-3.94417e-14 1.06941e-14 5.0854e-12) (4.64213e-14 3.72399e-15 5.41593e-12) (-1.64674e-14 -2.73898e-14 5.02475e-12) (-2.48837e-15 -4.89964e-15 4.81112e-12) (-4.00615e-14 -3.34524e-14 5.15877e-12) (-2.28899e-15 2.33828e-15 4.21121e-12)
1900          (-5.27119e-14 6.19902e-19 1.29007e-12) (-1.02558e-12 -1.26955e-12 1.88088e-11) (1.19296e-13 -9.88482e-14 2.40602e-11) (-5.18388e-13 -3.03261e-13 2.13671e-11) (2.59224e-13 2.70399e-13 2.01272e-11) (-1.37582e-13 3.89758e-14 1.76376e-11) (1.54143e-13 1.2782e-14 1.79983e-11) (-5.33454e-14 -8.89504e-14 1.64089e-11) (-8.1575e-15 -1.5771e-14 1.56628e-11) (-1.30393e-13 -1.08926e-13 1.68296e-11) (-7.54283e-15 7.6321e-15 1.37616e-11)
1950          (3.61229e-12 3.58478e-18 1.05835e-11) (-2.73937e-12 -3.2131e-12 3.60121e-11) (1.30457e-13 -1.40536e-13 3.17044e-11) (-5.41893e-13 -3.23345e-13 2.28887e-11) (2.53529e-13 2.62114e-13 1.96165e-11) (-1.29495e-13 3.70221e-14 1.67264e-11) (1.46111e-13 1.18786e-14 1.71284e-11) (-5.25886e-14 -8.69391e-14 1.58742e-11) (-8.33228e-15 -1.5174e-14 1.54166e-11) (-1.29628e-13 -1.08367e-13 1.67689e-11) (-7.56087e-15 7.63631e-15 1.37753e-11)
2000          (-5.27033e-13 -1.41678e-17 1.37198e-13) (-1.37973e-12 -1.61186e-12 1.66515e-11) (9.46078e-14 -9.20754e-14 2.061e-11) (-4.44447e-13 -2.5949e-13 1.82232e-11) (2.24776e-13 2.35743e-13 1.75485e-11) (-1.23321e-13 3.43052e-14 1.58015e-11) (1.41564e-13 1.14175e-14 1.65445e-11) (-5.10098e-14 -8.44636e-14 1.54092e-11) (-8.04084e-15 -1.48659e-14 1.49424e-11) (-1.25467e-13 -1.04852e-13 1.6212e-11) (-7.27198e-15 7.38145e-15 1.33026e-11)
2050          (3.15316e-12 1.09865e-19 6.68796e-12) (5.70717e-13 4.73582e-13 8.36922e-12) (6.91767e-14 -1.82135e-14 9.38457e-12) (-2.62136e-13 -1.48745e-13 1.04951e-11) (1.51946e-13 1.65372e-13 1.24072e-11) (-1.00013e-13 2.5495e-14 1.29454e-11) (1.27696e-13 9.2432e-15 1.49958e-11) (-5.19807e-14 -8.43629e-14 1.49384e-11) (-8.64577e-15 -1.44437e-14 1.51e-11) (-1.29245e-13 -1.08121e-13 1.67508e-11) (-7.5807e-15 7.6786e-15 1.38437e-11)
2100          (6.72754e-13 -2.2337e-18 1.23729e-12) (4.34543e-13 4.27657e-13 7.07611e-13) (3.87081e-14 -1.31613e-14 4.78154e-12) (-2.10711e-13 -1.16507e-13 8.21853e-12) (1.32557e-13 1.45752e-13 1.09209e-11) (-9.01648e-14 2.29002e-14 1.16358e-11) (1.14067e-13 8.42983e-15 1.33736e-11) (-4.50647e-14 -7.35373e-14 1.31283e-11) (-7.30955e-15 -1.27002e-14 1.31036e-11) (-1.11397e-13 -9.31638e-14 1.44211e-11) (-6.51874e-15 6.59139e-15 1.18845e-11)
2150          (3.62885e-12 6.06479e-18 6.93469e-12) (1.70351e-12 1.66524e-12 5.85093e-12) (9.31008e-14 1.6137e-14 8.18533e-12) (-2.61623e-13 -1.47047e-13 1.06401e-11) (1.5578e-13 1.69349e-13 1.27291e-11) (-1.00656e-13 2.60345e-14 1.30343e-11) (1.26201e-13 9.36253e-15 1.47934e-11) (-4.99514e-14 -8.14668e-14 1.45171e-11) (-8.17993e-15 -1.40754e-14 1.45431e-11) (-1.24076e-13 -1.03781e-13 1.60619e-11) (-7.2423e-15 7.35901e-15 1.32547e-11)
2200          (-1.18627e-12 -1.03973e-17 2.03823e-13) (-3.04823e-12 -3.39274e-12 2.41321e-11) (9.00543e-14 -1.52435e-13 2.70673e-11) (-5.35835e-13 -3.15772e-13 2.20752e-11) (2.60297e-13 2.70191e-13 2.00805e-11) (-1.34926e-13 3.86735e-14 1.72457e-11) (1.48403e-13 1.25277e-14 1.73203e-11) (-5.01021e-14 -8.38989e-14 1.55832e-11) (-7.56972e-15 -1.49495e-14 1.47321e-11) (-1.22012e-13 -1.019e-13 1.57408e-11) (-7.04404e-15 7.1172e-15 1.2848e-11)
2250          (4.67044e-12 -3.30592e-18 1.15426e-11) (-1.18799e-12 -1.5088e-12 2.51886e-11) (1.0628e-13 -7.79847e-14 2.14047e-11) (-4.05807e-13 -2.38625e-13 1.69293e-11) (2.03721e-13 2.14461e-13 1.60658e-11) (-1.13939e-13 3.12776e-14 1.47206e-11) (1.34266e-13 1.05382e-14 1.57266e-11) (-4.99321e-14 -8.22043e-14 1.48867e-11) (-7.92742e-15 -1.43277e-14 1.45884e-11) (-1.2308e-13 -1.02899e-13 1.59164e-11) (-7.17284e-15 7.25135e-15 1.30814e-11)
2300          (2.01624e-12 1.85307e-18 3.96624e-12) (9.04373e-13 8.53988e-13 5.00904e-12) (7.86042e-14 -1.48382e-14 9.52023e-12) (-3.03796e-13 -1.71583e-13 1.21242e-11) (1.74363e-13 1.87556e-13 1.40009e-11) (-1.07537e-13 2.84853e-14 1.3839e-11) (1.30429e-13 9.99448e-15 1.52745e-11) (-4.9855e-14 -8.17416e-14 1.46991e-11) (-8.06658e-15 -1.4166e-14 1.45528e-11) (-1.23414e-13 -1.03205e-13 1.5977e-11) (-7.21826e-15 7.30127e-15 1.3162e-11)
2350          (4.6843e-12 1.51764e-18 1.22243e-11) (-1.80924e-12 -2.22623e-12 3.19584e-11) (1.26382e-13 -1.09781e-13 2.75439e-11) (-4.77381e-13 -2.84316e-13 1.99517e-11) (2.21168e-13 2.27668e-13 1.69424e-11) (-1.10882e-13 3.19816e-14 1.42285e-11) (1.23119e-13 1.01233e-14 1.4417e-11) (-4.40177e-14 -7.2844e-14 1.33083e-11) (-7.07728e-15 -1.26951e-14 1.29373e-11) (-1.08959e-13 -9.10934e-14 1.41072e-11) (-6.3765e-15 6.42961e-15 1.16046e-11)
2400          (3.09464e-12 -3.50288e-18 6.41169e-12) (9.86718e-13 8.93576e-13 8.51718e-12) (9.79306e-14 -2.47855e-14 1.28154e-11) (-3.70803e-13 -2.10895e-13 1.48134e-11) (2.07282e-13 2.22019e-13 1.65415e-11) (-1.25751e-13 3.34965e-14 1.61522e-11) (1.51457e-13 1.16967e-14 1.77239e-11) (-5.73252e-14 -9.41623e-14 1.69754e-11) (-9.20731e-15 -1.6375e-14 1.6734e-11) (-1.41525e-13 -1.18331e-13 1.83136e-11) (-8.2584e-15 8.35686e-15 1.50695e-11)
2450          (1.73408e-12 -2.42878e-18 3.37187e-12) (9.94099e-13 9.60268e-13 4.52256e-12) (7.94099e-14 -1.00043e-14 9.1591e-12) (-3.02991e-13 -1.70415e-13 1.22324e-11) (1.80346e-13 1.95924e-13 1.47095e-11) (-1.1584e-13 3.01453e-14 1.49748e-11) (1.43466e-13 1.08303e-14 1.68019e-11) (-5.53257e-14 -9.065e-14 1.62716e-11) (-8.87274e-15 -1.57673e-14 1.61155e-11) (-1.36599e-13 -1.14217e-13 1.76641e-11) (-7.9512e-15 8.06876e-15 1.45365e-11)
2500          (2.49346e-12 -5.89574e-18 7.71455e-12) (-2.18959e-12 -2.56951e-12 2.83981e-11) (9.89039e-14 -1.15804e-13 2.50862e-11) (-4.14055e-13 -2.48353e-13 1.73732e-11) (1.86642e-13 1.91569e-13 1.42838e-11) (-9.32917e-14 2.67011e-14 1.20181e-11) (1.06247e-13 8.38337e-15 1.24909e-11) (-4.06346e-14 -6.63936e-14 1.19151e-11) (-6.84556e-15 -1.13416e-14 1.19061e-11) (-1.01739e-13 -8.51303e-14 1.32082e-11) (-6.0047e-15 6.05307e-15 1.09309e-11)
2550          (2.9983e-12 1.42318e-17 7.08696e-12) (2.46623e-14 -1.64915e-13 1.62744e-11) (1.10344e-13 -5.05005e-14 1.79329e-11) (-4.07071e-13 -2.35874e-13 1.67982e-11) (2.15121e-13 2.28154e-13 1.70871e-11) (-1.24386e-13 3.37471e-14 1.60578e-11) (1.47957e-13 1.15149e-14 1.73424e-11) (-5.56778e-14 -9.14628e-14 1.65182e-11) (-8.93231e-15 -1.58977e-14 1.62562e-11) (-1.37442e-13 -1.14914e-13 1.77839e-11) (-8.02105e-15 8.11602e-15 1.46321e-11)
2600          (-1.35379e-12 7.18253e-18 -3.84433e-12) (1.04472e-12 1.14426e-12 -7.16403e-12) (2.45366e-14 1.61634e-14 -4.20425e-13) (-1.4383e-13 -7.49536e-14 5.4795e-12) (1.11353e-13 1.27166e-13 9.64019e-12) (-8.83019e-14 2.10005e-14 1.15185e-11) (1.20317e-13 8.23639e-15 1.41462e-11) (-5.13788e-14 -8.28279e-14 1.45015e-11) (-8.65403e-15 -1.40842e-14 1.48784e-11) (-1.28242e-13 -1.07331e-13 1.66272e-11) (-7.53504e-15 7.64301e-15 1.37713e-11)
2650          (2.85985e-12 1.40709e-17 7.83265e-12) (-1.4032e-12 -1.73622e-12 2.5158e-11) (1.24549e-13 -1.09545e-13 2.62437e-11) (-5.3559e-13 -3.14237e-13 2.19969e-11) (2.63586e-13 2.74098e-13 2.03398e-11) (-1.37833e-13 3.93664e-14 1.75879e-11) (1.51803e-13 1.28266e-14 1.76928e-11) (-5.09481e-14 -8.5475e-14 1.58935e-11) (-7.64023e-15 -1.52994e-14 1.49858e-11) (-1.23924e-13 -1.03479e-13 1.5976e-11) (-7.14316e-15 7.22375e-15 1.30279e-11)
2700          (-3.70621e-13 -1.45996e-17 -6.51496e-13) (1.02016e-13 3.46047e-14 5.77575e-12) (6.76361e-14 -3.08734e-14 1.04369e-11) (-2.89258e-13 -1.64844e-13 1.17702e-11) (1.64311e-13 1.77526e-13 1.33409e-11) (-1.04076e-13 2.7032e-14 1.34732e-11) (1.30305e-13 9.60379e-15 1.53048e-11) (-5.22346e-14 -8.49382e-14 1.5094e-11) (-8.64004e-15 -1.45893e-14 1.51899e-11) (-1.29852e-13 -1.08632e-13 1.68235e-11) (-7.60542e-15 7.71383e-15 1.38973e-11)
2750          (3.44477e-12 -1.87491e-18 9.1187e-12) (-1.23607e-12 -1.54937e-12 2.45131e-11) (1.08806e-13 -9.55137e-14 2.33598e-11) (-4.45142e-13 -2.6275e-13 1.851e-11) (2.16771e-13 2.25764e-13 1.68545e-11) (-1.1479e-13 3.24066e-14 1.47868e-11) (1.30353e-13 1.06019e-14 1.52644e-11) (-4.63943e-14 -7.69056e-14 1.40972e-11) (-7.22219e-15 -1.34858e-14 1.35907e-11) (-1.1365e-13 -9.49693e-14 1.46912e-11) (-6.61739e-15 6.67127e-15 1.20394e-11)
2800          (2.76695e-12 -2.63464e-18 7.23703e-12) (-8.56356e-13 -1.1487e-12 2.36266e-11) (1.28112e-13 -8.00644e-14 2.38453e-11) (-4.65409e-13 -2.7389e-13 1.94961e-11) (2.29406e-13 2.39235e-13 1.78876e-11) (-1.21831e-13 3.43638e-14 1.57005e-11) (1.38695e-13 1.12445e-14 1.62355e-11) (-4.9864e-14 -8.25204e-14 1.50672e-11) (-7.87589e-15 -1.44577e-14 1.4619e-11) (-1.22878e-13 -1.02705e-13 1.58859e-11) (-7.14318e-15 7.23986e-15 1.30442e-11)
2850          (1.38238e-12 1.95269e-18 3.14291e-12) (3.19868e-13 1.64227e-13 1.29056e-11) (1.15695e-13 -4.59675e-14 1.76713e-11) (-4.13274e-13 -2.39633e-13 1.69221e-11) (2.12797e-13 2.23355e-13 1.66125e-11) (-1.1673e-13 3.25366e-14 1.49426e-11) (1.3335e-13 1.08253e-14 1.55663e-11) (-4.76569e-14 -7.90492e-14 1.44422e-11) (-7.48797e-15 -1.39525e-14 1.39816e-11) (-1.17402e-13 -9.81119e-14 1.51643e-11) (-6.79822e-15 6.90525e-15 1.24416e-11)
2900          (4.99826e-12 -4.46201e-18 1.20176e-11) (-6.39053e-13 -9.74822e-13 2.71517e-11) (1.43344e-13 -8.15193e-14 2.56789e-11) (-5.20882e-13 -3.04751e-13 2.16086e-11) (2.64108e-13 2.77803e-13 2.07757e-11) (-1.46825e-13 4.05408e-14 1.89335e-11) (1.71221e-13 1.35958e-14 2.00522e-11) (-6.27968e-14 -1.03607e-13 1.88368e-11) (-9.92061e-15 -1.81151e-14 1.83593e-11) (-1.5444e-13 -1.29089e-13 1.99678e-11) (-8.99058e-15 9.09362e-15 1.63953e-11)
2950          (-1.90963e-13 4.43613e-18 1.35362e-12) (-2.00822e-12 -2.22895e-12 1.57133e-11) (5.54269e-14 -9.20801e-14 1.64588e-11) (-3.55515e-13 -2.06588e-13 1.46124e-11) (1.89135e-13 2.01769e-13 1.51301e-11) (-1.12357e-13 3.01716e-14 1.45043e-11) (1.3459e-13 1.04726e-14 1.57656e-11) (-5.00453e-14 -8.24316e-14 1.49507e-11) (-7.8428e-15 -1.44238e-14 1.45887e-11) (-1.22611e-13 -1.02479e-13 1.58441e-11) (-7.12317e-15 7.2154e-15 1.29974e-11)
3000          (-6.32411e-13 -3.36651e-18 -1.8554e-12) (4.58849e-13 5.33151e-13 -5.72314e-12) (-6.22562e-15 1.11121e-14 -2.66369e-12) (-2.11121e-14 -7.7168e-15 6.26978e-13) (3.03563e-14 3.72234e-14 2.86989e-12) (-3.08765e-14 6.73109e-15 4.0671e-12) (4.52555e-14 2.86705e-15 5.3529e-12) (-2.06355e-14 -3.29105e-14 5.68551e-12) (-3.55113e-15 -5.49357e-15 5.94519e-12) (-5.16282e-14 -4.32291e-14 6.70723e-12) (-3.0573e-15 3.08999e-15 5.57257e-12)
3050          (-1.09335e-12 4.07572e-18 -2.58289e-12) (4.63973e-13 4.92813e-13 -2.22868e-12) (3.22626e-14 -1.68223e-14 4.31781e-12) (-1.79289e-13 -1.00842e-13 6.99168e-12) (1.00656e-13 1.06271e-13 7.83012e-12) (-5.5687e-14 1.58262e-14 7.04561e-12) (5.97839e-14 5.32307e-15 6.93045e-12) (-1.79231e-14 -3.08048e-14 5.92046e-12) (-2.3901e-15 -5.7037e-15 5.29125e-12) (-4.2284e-14 -3.52282e-14 5.42142e-12) (-2.3876e-15 2.41435e-15 4.35511e-12)
3100          (-9.21009e-13 4.2957e-18 -5.56174e-13) (-1.66811e-12 -1.82939e-12 1.13095e-11) (3.22477e-14 -6.96295e-14 1.16437e-11) (-2.00963e-13 -1.20493e-13 8.48038e-12) (9.02278e-14 9.1241e-14 6.76809e-12) (-3.96336e-14 1.24449e-14 5.04814e-12) (3.78876e-14 3.72882e-15 4.38063e-12) (-9.60144e-15 -1.70782e-14 3.43083e-12) (-1.16143e-15 -3.25453e-15 2.89446e-12) (-2.2502e-14 -1.87173e-14 2.87129e-12) (-1.24648e-15 1.26997e-15 2.28167e-12)
3150          (2.16013e-12 1.28594e-17 6.75583e-12) (-2.23155e-12 -2.54028e-12 2.25829e-11) (5.4614e-14 -9.24558e-14 1.76424e-11) (-2.49001e-13 -1.52238e-13 1.0672e-11) (1.0246e-13 1.02524e-13 7.65792e-12) (-4.37891e-14 1.36254e-14 5.66013e-12) (4.44139e-14 3.94009e-15 5.22819e-12) (-1.42754e-14 -2.39754e-14 4.52654e-12) (-2.13589e-15 -4.20347e-15 4.21146e-12) (-3.45722e-14 -2.88767e-14 4.47238e-12) (-2.03265e-15 2.01015e-15 3.64575e-12)
3200          (-6.77016e-13 -5.00877e-18 -6.98006e-13) (-1.02862e-12 -1.09063e-12 3.8873e-12) (-1.43366e-15 -3.42069e-14 3.71745e-12) (-6.73824e-14 -3.99969e-14 2.83996e-12) (3.40903e-14 3.60609e-14 2.73183e-12) (-1.93187e-14 5.29829e-15 2.53296e-12) (2.29814e-14 1.79163e-15 2.70754e-12) (-8.55709e-15 -1.40693e-14 2.55647e-12) (-1.34937e-15 -2.41486e-15 2.49867e-12) (-2.10125e-14 -1.75655e-14 2.72174e-12) (-1.23645e-15 1.2357e-15 2.23633e-12)
3250          (2.70975e-14 1.3733e-17 -1.25466e-12) (1.75686e-12 1.89835e-12 -9.91054e-12) (1.39739e-15 4.26689e-14 -5.60851e-12) (2.43121e-14 1.92312e-14 -1.48695e-12) (3.05805e-15 6.77147e-15 4.5644e-13) (-1.17988e-14 1.932e-15 1.46269e-12) (1.97865e-14 1.071e-15 2.32147e-12) (-1.03582e-14 -1.62644e-14 2.70104e-12) (-1.96119e-15 -2.69341e-15 2.98379e-12) (-2.6661e-14 -2.23529e-14 3.47208e-12) (-1.57701e-15 1.61839e-15 2.91553e-12)
3300          (-1.10518e-12 1.54143e-17 -1.23443e-12) (-1.63457e-12 -1.71453e-12 4.48265e-12) (-2.17511e-14 -4.24687e-14 2.60797e-12) (-1.93548e-14 -1.29941e-14 8.75482e-13) (7.43986e-15 8.48211e-15 6.85045e-13) (-6.68552e-15 1.31429e-15 9.24352e-13) (1.19845e-14 5.24091e-16 1.44276e-12) (-7.36019e-15 -1.12585e-14 1.80419e-12) (-1.51448e-15 -1.72843e-15 2.12232e-12) (-1.95709e-14 -1.64399e-14 2.56779e-12) (-1.1927e-15 1.2106e-15 2.18568e-12)