# Probe 0 (0.0015 0.0015 0)
# Probe 1 (0.0015 0.0015 0.01)
# Probe 2 (0.0015 0.0015 0.02)
# Probe 3 (0.0015 0.0015 0.03)
# Probe 4 (0.0015 0.0015 0.04)
# Probe 5 (0.0015 0.0015 0.05)
# Probe 6 (0.0015 0.0015 0.06)
# Probe 7 (0.0015 0.0015 0.07)
# Probe 8 (0.0015 0.0015 0.08)
# Probe 9 (0.0015 0.0015 0.09)
# Probe 10 (0.0015 0.0015 0.1)
# Time        0             1             2             3             4             5             6             7             8             9             10           
50            167966        167966        167966        103071        103071        103071        68828.4       68828.4       45784.2       45784.2       45784.2      
100           185010        185010        185010        128084        128084        128084        76060         76060         39379.5       39379.5       39379.5      
150           190411        190411        190411        138019        138019        138019        82763         82763         38236.9       38236.9       38236.9      
200           192732        192732        192732        142716        142716        142716        87350.3       87350.3       38765.8       38765.8       38765.8      
250           193967        193967        193967        145358        145358        145358        90369.8       90369.8       39666.5       39666.5       39666.5      
300           194712        194712        194712        146996        146996        146996        92383.7       92383.7       40505.6       40505.6       40505.6      
350           195193        195193        195193        148068        148068        148068        93750.2       93750.2       41172.7       41172.7       41172.7      
400           195514        195514        195514        148789        148789        148789        94688.2       94688.2       41668.8       41668.8       41668.8      
450           195733        195733        195733        149282        149282        149282        95336         95336         42025.7       42025.7       42025.7      
500           195880        195880        195880        149618        149618        149618        95783.4       95783.4       42278         42278         42278        
550           195983        195983        195983        149850        149850        149850        96092         96092         42454.3       42454.3       42454.3      
600           196051        196051        196051        150005        150005        150005        96306         96306         42577.1       42577.1       42577.1      
650           196100        196100        196100        150116        150116        150116        96453.7       96453.7       42662.1       42662.1       42662.1      
700           196134        196134        196134        150194        150194        150194        96555.4       96555.4       42720.8       42720.8       42720.8      
750           196156        196156        196156        150244        150244        150244        96625.9       96625.9       42761.7       42761.7       42761.7      
800           196172        196172        196172        150280        150280        150280        96673.9       96673.9       42789.5       42789.5       42789.5      
850           196181        196181        196181        150303        150303        150303        96705.1       96705.1       42808.1       42808.1       42808.1      
900           196188        196188        196188        150319        150319        150319        96728.1       96728.1       42821.3       42821.3       42821.3      
950           196192        196192        196192        150328        150328        150328        96742.8       96742.8       42830.2       42830.2       42830.2      
1000          196197        196197        196197        150338        150338        150338        96753.5       96753.5       42836.2       42836.2       42836.2      
1050          196198        196198        196198        150342        150342        150342        96760.4       96760.4       42840.3       42840.3       42840.3      
1100          196200        196200        196200        150345        150345        150345        96764.9       96764.9       42843.1       42843.1       42843.1      
1150          196203        196203        196203        150352        150352        150352        96768.6       96768.6       42845.1       42845.1       42845.1      
1200          196203        196203        196203        150353        150353        150353        96771         96771         42846.2       42846.2       42846.2      
1250          196203        196203        196203        150353        150353        150353        96772.1       96772.1       42846.8       42846.8       42846.8      
1300          196204        196204        196204        150354        150354        150354        96773.1       96773.1       42847.4       42847.4       42847.4      
1350          196204        196204        196204        150354        150354        150354        96774.1       96774.1       42848.1       42848.1       42848.1      
1400          196204        196204        196204        150354        150354        150354        96774.1       96774.1       42848.1       42848.1       42848.1      
1450          196204        196204        196204        150354        150354        150354        96774.1       96774.1       42848.1       42848.1       42848.1      
1500          196204        196204        196204        150354        150354        150354        96774.1       96774.1       42848.1       42848.1       42848.1      
1550          196204        196204        196204        150354        150354        150354        96774.1       96774.1       42848.1       42848.1       42848.1      
1600          196204        196204        196204        150354        150354        150354        96774.1       96774.1       42848.1       42848.1       42848.1      
1650          196204        196204        196204        150354        150354        150354        96774.1       96774.1       42848.1       42848.1       42848.1      
1700          196204        196204        196204        150354        150354        150354        96774.1       96774.1       42848.1       42848.1       42848.1      
1750          196204        196204        196204        150354        150354        150354        96774.1       96774.1       42848.1       42848.1       42848.1      
1800          196204        196204        196204        150354        150354        150354        96774.1       96774.1       42848.1       42848.1       42848.1      
1850          196204        196204        196204        150354        150354        150354        96774.1       96774.1       42848.1       42848.1       42848.1      
1900          196204        196204        196204        150354        150354        150354        96774.1       96774.1       42848.1       42848.1       42848.1      
1950          196204        196204        196204        150354        150354        150354        96774.1       96774.1       42848.1       42848.1       42848.1      
2000          196204        196204        196204        150354        150354        150354        96774.1       96774.1       42848.1       42848.1       42848.1      
2050          196204        196204        196204        150354        150354        150354        96774.1       96774.1       42848.1       42848.1       42848.1      
2100          196204        196204        196204        150354        150354        150354        96774.1       96774.1       42848.1       42848.1       42848.1      
2150          196204        196204        196204        150354        150354        150354        96774.1       96774.1       42848.1       42848.1       42848.1      
2200          196204        196204        196204        150354        150354        150354        96774.1       96774.1       42848.1       42848.1       42848.1      
2250          196204        196204        196204        150354        150354        150354        96774.1       96774.1       42848.1       42848.1       42848.1      
2300          196204        196204        196204        150354        150354        150354        96774.1       96774.1       42848.1       42848.1       42848.1      
2350          196204        196204        196204        150354        150354        150354        96774.1       96774.1       42848.1       42848.1       42848.1      
2400          196204        196204        196204        150354        150354        150354        96774.1       96774.1       42848.1       42848.1       42848.1      
2450          196204        196204        196204        150354        150354        150354        96774.1       96774.1       42848.1       42848.1       42848.1      
2500          196204        196204        196204        150354        150354        150354        96774.1       96774.1       42848.1       42848.1       42848.1      
2550          196204        196204        196204        150354        150354        150354        96774.1       96774.1       42848.1       42848.1       42848.1      
2600          196204        196204        196204        150354        150354        150354        96774.1       96774.1       42848.1       42848.1       42848.1      
2650          196204        196204        196204        150354        150354        150354        96774.1       96774.1       42848.1       42848.1       42848.1      
2700          196204        196204        196204        150354        150354        150354        96774.1       96774.1       42848.1       42848.1       42848.1      
2750          196204        196204        196204        150354        150354        150354        96774.1       96774.1       42848.1       42848.1       42848.1      
2800          196204        196204        196204        150354        150354        150354        96774.1       96774.1       42848.1       42848.1       42848.1      
2850          196204        196204        196204        150354        150354        150354        96774.1       96774.1       42848.1       42848.1       42848.1      
2900          196204        196204        196204        150354        150354        150354        96774.1       96774.1       42848.1       42848.1       42848.1      
2950          196204        196204        196204        150354        150354        150354        96774.1       96774.1       42848.1       42848.1       42848.1      
3000          196204        196204        196204        150354        150354        150354        96774.1       96774.1       42848.1       42848.1       42848.1      
3050          196204        196204        196204        150354        150354        150354        96774.1       96774.1       42848.1       42848.1       42848.1      
3100          196204        196204        196204        150354        150354        150354        96774.1       96774.1       42848.1       42848.1       42848.1      
3150          196204        196204        196204        150354        150354        150354        96774.1       96774.1       42848.1       42848.1       42848.1      
3200          196204        196204        196204        150354        150354        150354        96774.1       96774.1       42848.1       42848.1       42848.1      
3250          196204        196204        196204        150354        150354        150354        96774.1       96774.1       42848.1       42848.1       42848.1      
3300          196204        196204        196204        150354        150354        150354        96774.1       96774.1       42848.1       42848.1       42848.1      
3350          196204        196204        196204        150354        150354        150354        96774.1       96774.1       42848.1       42848.1       42848.1      
3400          196204        196204        196204        150354        150354        150354        96774.1       96774.1       42848.1       42848.1       42848.1      
3450          196204        196204        196204        150354        150354        150354        96774.1       96774.1       42848.1       42848.1       42848.1      
3500          196204        196204        196204        150354        150354        150354        96774.1       96774.1       42848.1       42848.1       42848.1      
3550          196204        196204        196204        150354        150354        150354        96774.1       96774.1       42848.1       42848.1       42848.1      
3600          196204        196204        196204        150354        150354        150354        96774.1       96774.1       42848.1       42848.1       42848.1      
3650          196204        196204        196204        150354        150354        150354        96774.1       96774.1       42848.1       42848.1       42848.1      
3700          196204        196204        196204        150354        150354        150354        96774.1       96774.1       42848.1       42848.1       42848.1      
3750          196204        196204        196204        150354        150354        150354        96774.1       96774.1       42848.1       42848.1       42848.1      
3800          196204        196204        196204        150354        150354        150354        96774.1       96774.1       42848.1       42848.1       42848.1      
3850          196204        196204        196204        150354        150354        150354        96774.1       96774.1       42848.1       42848.1       42848.1      
3900          196204        196204        196204        150354        150354        150354        96774.1       96774.1       42848.1       42848.1       42848.1      
3950          196204        196204        196204        150354        150354        150354        96774.1       96774.1       42848.1       42848.1       42848.1      
4000          196204        196204        196204        150354        150354        150354        96774.1       96774.1       42848.1       42848.1       42848.1      
4050          196204        196204        196204        150354        150354        150354        96774.1       96774.1       42848.1       42848.1       42848.1      
4100          196204        196204        196204        150354        150354        150354        96774.1       96774.1       42848.1       42848.1       42848.1      
4150          196204        196204        196204        150354        150354        150354        96774.1       96774.1       42848.1       42848.1       42848.1      
4200          196204        196204        196204        150354        150354        150354        96774.1       96774.1       42848.1       42848.1       42848.1      
4250          196204        196204        196204        150354        150354        150354        96774.1       96774.1       42848.1       42848.1       42848.1      
4300          196204        196204        196204        150354        150354        150354        96774.1       96774.1       42848.1       42848.1       42848.1      
4350          196204        196204        196204        150354        150354        150354        96774.1       96774.1       42848.1       42848.1       42848.1      
4400          196204        196204        196204        150354        150354        150354        96774.1       96774.1       42848.1       42848.1       42848.1      
4450          196204        196204        196204        150354        150354        150354        96774.1       96774.1       42848.1       42848.1       42848.1      
4500          196204        196204        196204        150354        150354        150354        96774.1       96774.1       42848.1       42848.1       42848.1      
4550          196204        196204        196204        150354        150354        150354        96774.1       96774.1       42848.1       42848.1       42848.1      
4600          196204        196204        196204        150354        150354        150354        96774.1       96774.1       42848.1       42848.1       42848.1      
4650          196204        196204        196204        150354        150354        150354        96774.1       96774.1       42848.1       42848.1       42848.1      
4700          196204        196204        196204        150354        150354        150354        96774.1       96774.1       42848.1       42848.1       42848.1      
4750          196204        196204        196204        150354        150354        150354        96774.1       96774.1       42848.1       42848.1       42848.1      
4800          196204        196204        196204        150354        150354        150354        96774.1       96774.1       42848.1       42848.1       42848.1      
4850          196204        196204        196204        150354        150354        150354        96774.1       96774.1       42848.1       42848.1       42848.1      
4900          196204        196204        196204        150354        150354        150354        96774.1       96774.1       42848.1       42848.1       42848.1      
4950          196204        196204        196204        150354        150354        150354        96774.1       96774.1       42848.1       42848.1       42848.1      
5000          196204        196204        196204        150354        150354        150354        96774.1       96774.1       42848.1       42848.1       42848.1      
5050          196204        196204        196204        150354        150354        150354        96774.1       96774.1       42848.1       42848.1       42848.1      
5100          196204        196204        196204        150354        150354        150354        96774.1       96774.1       42848.1       42848.1       42848.1      
5150          196204        196204        196204        150354        150354        150354        96774.1       96774.1       42848.1       42848.1       42848.1      
5200          196204        196204        196204        150354        150354        150354        96774.1       96774.1       42848.1       42848.1       42848.1      
5250          196204        196204        196204        150354        150354        150354        96774.1       96774.1       42848.1       42848.1       42848.1      
5300          196204        196204        196204        150354        150354        150354        96774.1       96774.1       42848.1       42848.1       42848.1      
5350          196204        196204        196204        150354        150354        150354        96774.1       96774.1       42848.1       42848.1       42848.1      
5400          196204        196204        196204        150354        150354        150354        96774.1       96774.1       42848.1       42848.1       42848.1      
5450          196204        196204        196204        150354        150354        150354        96774.1       96774.1       42848.1       42848.1       42848.1      
5500          196204        196204        196204        150354        150354        150354        96774.1       96774.1       42848.1       42848.1       42848.1      
5550          196204        196204        196204        150354        150354        150354        96774.1       96774.1       42848.1       42848.1       42848.1      
5600          196204        196204        196204        150354        150354        150354        96774.1       96774.1       42848.1       42848.1       42848.1      
5650          196204        196204        196204        150354        150354        150354        96774.1       96774.1       42848.1       42848.1       42848.1      
5700          196204        196204        196204        150354        150354        150354        96774.1       96774.1       42848.1       42848.1       42848.1      
5750          196204        196204        196204        150354        150354        150354        96774.1       96774.1       42848.1       42848.1       42848.1      
5800          196204        196204        196204        150354        150354        150354        96774.1       96774.1       42848.1       42848.1       42848.1      
5850          196204        196204        196204        150354        150354        150354        96774.1       96774.1       42848.1       42848.1       42848.1      
5900          196204        196204        196204        150354        150354        150354        96774.1       96774.1       42848.1       42848.1       42848.1      
5950          196204        196204        196204        150354        150354        150354        96774.1       96774.1       42848.1       42848.1       42848.1      
6000          196204        196204        196204        150354        150354        150354        96774.1       96774.1       42848.1       42848.1       42848.1      
6050          196204        196204        196204        150354        150354        150354        96774.1       96774.1       42848.1       42848.1       42848.1      
6100          196204        196204        196204        150354        150354        150354        96774.1       96774.1       42848.1       42848.1       42848.1      
6150          196204        196204        196204        150354        150354        150354        96774.1       96774.1       42848.1       42848.1       42848.1      
6200          196204        196204        196204        150354        150354        150354        96774.1       96774.1       42848.1       42848.1       42848.1      
6250          196204        196204        196204        150354        150354        150354        96774.1       96774.1       42848.1       42848.1       42848.1      
6300          196204        196204        196204        150354        150354        150354        96774.1       96774.1       42848.1       42848.1       42848.1      
6350          196204        196204        196204        150354        150354        150354        96774.1       96774.1       42848.1       42848.1       42848.1      
6400          196204        196204        196204        150354        150354        150354        96774.1       96774.1       42848.1       42848.1       42848.1      
6450          196204        196204        196204        150354        150354        150354        96774.1       96774.1       42848.1       42848.1       42848.1      
6500          196204        196204        196204        150354        150354        150354        96774.1       96774.1       42848.1       42848.1       42848.1      
6550          196204        196204        196204        150354        150354        150354        96774.1       96774.1       42848.1       42848.1       42848.1      
6600          196204        196204        196204        150354        150354        150354        96774.1       96774.1       42848.1       42848.1       42848.1      
6650          196204        196204        196204        150354        150354        150354        96774.1       96774.1       42848.1       42848.1       42848.1      
6700          196204        196204        196204        150354        150354        150354        96774.1       96774.1       42848.1       42848.1       42848.1      
6750          196204        196204        196204        150354        150354        150354        96774.1       96774.1       42848.1       42848.1       42848.1      
6800          196204        196204        196204        150354        150354        150354        96774.1       96774.1       42848.1       42848.1       42848.1      
6850          196204        196204        196204        150354        150354        150354        96774.1       96774.1       42848.1       42848.1       42848.1      
6900          196204        196204        196204        150354        150354        150354        96774.1       96774.1       42848.1       42848.1       42848.1      
6950          196204        196204        196204        150354        150354        150354        96774.1       96774.1       42848.1       42848.1       42848.1      
7000          196204        196204        196204        150354        150354        150354        96774.1       96774.1       42848.1       42848.1       42848.1      
7050          196204        196204        196204        150354        150354        150354        96774.1       96774.1       42848.1       42848.1       42848.1      
7100          196204        196204        196204        150354        150354        150354        96774.1       96774.1       42848.1       42848.1       42848.1      
7150          196204        196204        196204        150354        150354        150354        96774.1       96774.1       42848.1       42848.1       42848.1      
7200          196204        196204        196204        150354        150354        150354        96774.1       96774.1       42848.1       42848.1       42848.1      
7250          196204        196204        196204        150354        150354        150354        96774.1       96774.1       42848.1       42848.1       42848.1      
7300          196204        196204        196204        150354        150354        150354        96774.1       96774.1       42848.1       42848.1       42848.1      
7350          196204        196204        196204        150354        150354        150354        96774.1       96774.1       42848.1       42848.1       42848.1      
7400          196204        196204        196204        150354        150354        150354        96774.1       96774.1       42848.1       42848.1       42848.1      
7450          196204        196204        196204        150354        150354        150354        96774.1       96774.1       42848.1       42848.1       42848.1      
7500          196204        196204        196204        150354        150354        150354        96774.1       96774.1       42848.1       42848.1       42848.1      
7550          196204        196204        196204        150354        150354        150354        96774.1       96774.1       42848.1       42848.1       42848.1      
7600          196204        196204        196204        150354        150354        150354        96774.1       96774.1       42848.1       42848.1       42848.1      
7650          196204        196204        196204        150354        150354        150354        96774.1       96774.1       42848.1       42848.1       42848.1      
7700          196204        196204        196204        150354        150354        150354        96774.1       96774.1       42848.1       42848.1       42848.1      
7750          196204        196204        196204        150354        150354        150354        96774.1       96774.1       42848.1       42848.1       42848.1      
7800          196204        196204        196204        150354        150354        150354        96774.1       96774.1       42848.1       42848.1       42848.1      
7850          196204        196204        196204        150354        150354        150354        96774.1       96774.1       42848.1       42848.1       42848.1      
7900          196204        196204        196204        150354        150354        150354        96774.1       96774.1       42848.1       42848.1       42848.1      
7950          196204        196204        196204        150354        150354        150354        96774.1       96774.1       42848.1       42848.1       42848.1      
8000          196204        196204        196204        150354        150354        150354        96774.1       96774.1       42848.1       42848.1       42848.1      
8050          196204        196204        196204        150354        150354        150354        96774.1       96774.1       42848.1       42848.1       42848.1      
8100          196204        196204        196204        150354        150354        150354        96774.1       96774.1       42848.1       42848.1       42848.1      
8150          196204        196204        196204        150354        150354        150354        96774.1       96774.1       42848.1       42848.1       42848.1      
8200          196204        196204        196204        150354        150354        150354        96774.1       96774.1       42848.1       42848.1       42848.1      
8250          196204        196204        196204        150354        150354        150354        96774.1       96774.1       42848.1       42848.1       42848.1      
8300          196204        196204        196204        150354        150354        150354        96774.1       96774.1       42848.1       42848.1       42848.1      
8350          196204        196204        196204        150354        150354        150354        96774.1       96774.1       42848.1       42848.1       42848.1      
8400          196204        196204        196204        150354        150354        150354        96774.1       96774.1       42848.1       42848.1       42848.1      
8450          196204        196204        196204        150354        150354        150354        96774.1       96774.1       42848.1       42848.1       42848.1      
8500          196204        196204        196204        150354        150354        150354        96774.1       96774.1       42848.1       42848.1       42848.1      
8550          196204        196204        196204        150354        150354        150354        96774.1       96774.1       42848.1       42848.1       42848.1      
8600          196204        196204        196204        150354        150354        150354        96774.1       96774.1       42848.1       42848.1       42848.1      
8650          196204        196204        196204        150354        150354        150354        96774.1       96774.1       42848.1       42848.1       42848.1      
8700          196204        196204        196204        150354        150354        150354        96774.1       96774.1       42848.1       42848.1       42848.1      
8750          196204        196204        196204        150354        150354        150354        96774.1       96774.1       42848.1       42848.1       42848.1      