# Probe 0 (0.0015 0.0015 0)
# Probe 1 (0.0015 0.0015 0.01)
# Probe 2 (0.0015 0.0015 0.02)
# Probe 3 (0.0015 0.0015 0.03)
# Probe 4 (0.0015 0.0015 0.04)
# Probe 5 (0.0015 0.0015 0.05)
# Probe 6 (0.0015 0.0015 0.06)
# Probe 7 (0.0015 0.0015 0.07)
# Probe 8 (0.0015 0.0015 0.08)
# Probe 9 (0.0015 0.0015 0.09)
# Probe 10 (0.0015 0.0015 0.1)
# Time        0             1             2             3             4             5             6             7             8             9             10           
50            (-2.39813 -2.39813 -3.06116e+06) (-2.39813 -2.39813 -3.06116e+06) (-2.39813 -2.39813 -3.06116e+06) (-2.57543 -2.57543 -1.98275e+06) (-2.57543 -2.57543 -1.98275e+06) (-2.57543 -2.57543 -1.98275e+06) (-8.33079 -8.33079 -1.14573e+06) (-8.33079 -8.33079 -1.14573e+06) (22.3725 22.3725 -1.6498e+06) (22.3725 22.3725 -1.6498e+06) (22.3725 22.3725 -1.6498e+06)
100           (-4.18403 -4.18403 -2.39111e+06) (-4.18403 -4.18403 -2.39111e+06) (-4.18403 -4.18403 -2.39111e+06) (-7.66893 -7.66893 -2.17899e+06) (-7.66893 -7.66893 -2.17899e+06) (-7.66893 -7.66893 -2.17899e+06) (-30.5959 -30.5959 -1.7741e+06) (-30.5959 -30.5959 -1.7741e+06) (14.1104 14.1104 -1.68162e+06) (14.1104 14.1104 -1.68162e+06) (14.1104 14.1104 -1.68162e+06)
150           (3.63559 3.63559 -2.1386e+06) (3.63559 3.63559 -2.1386e+06) (3.63559 3.63559 -2.1386e+06) (8.34348 8.34348 -2.15296e+06) (8.34348 8.34348 -2.15296e+06) (8.34348 8.34348 -2.15296e+06) (55.4755 55.4755 -1.99565e+06) (55.4755 55.4755 -1.99565e+06) (-2.584 -2.584 -1.79555e+06) (-2.584 -2.584 -1.79555e+06) (-2.584 -2.584 -1.79555e+06)
200           (1.74788 1.74788 -2.02154e+06) (1.74788 1.74788 -2.02154e+06) (1.74788 1.74788 -2.02154e+06) (4.59932 4.59932 -2.10763e+06) (4.59932 4.59932 -2.10763e+06) (4.59932 4.59932 -2.10763e+06) (38.1575 38.1575 -2.07901e+06) (38.1575 38.1575 -2.07901e+06) (6.25482 6.25482 -1.89661e+06) (6.25482 6.25482 -1.89661e+06) (6.25482 6.25482 -1.89661e+06)
250           (0.979582 0.979582 -1.95641e+06) (0.979582 0.979582 -1.95641e+06) (0.979582 0.979582 -1.95641e+06) (2.76786 2.76786 -2.07195e+06) (2.76786 2.76786 -2.07195e+06) (2.76786 2.76786 -2.07195e+06) (25.014 25.014 -2.11382e+06) (25.014 25.014 -2.11382e+06) (7.68305 7.68305 -1.97287e+06) (7.68305 7.68305 -1.97287e+06) (7.68305 7.68305 -1.97287e+06)
300           (0.561711 0.561711 -1.91622e+06) (0.561711 0.561711 -1.91622e+06) (0.561711 0.561711 -1.91622e+06) (1.66124 1.66124 -2.04657e+06) (1.66124 1.66124 -2.04657e+06) (1.66124 1.66124 -2.04657e+06) (15.6717 15.6717 -2.12981e+06) (15.6717 15.6717 -2.12981e+06) (6.23536 6.23536 -2.02793e+06) (6.23536 6.23536 -2.02793e+06) (6.23536 6.23536 -2.02793e+06)
350           (0.372413 0.372413 -1.89e+06) (0.372413 0.372413 -1.89e+06) (0.372413 0.372413 -1.89e+06) (1.12233 1.12233 -2.02886e+06) (1.12233 1.12233 -2.02886e+06) (1.12233 1.12233 -2.02886e+06) (10.8117 10.8117 -2.1379e+06) (10.8117 10.8117 -2.1379e+06) (4.87509 4.87509 -2.06701e+06) (4.87509 4.87509 -2.06701e+06) (4.87509 4.87509 -2.06701e+06)
400           (2.16875 2.16875 -1.87236e+06) (2.16875 2.16875 -1.87236e+06) (2.16875 2.16875 -1.87236e+06) (6.16464 6.16464 -2.01652e+06) (6.16464 6.16464 -2.01652e+06) (6.16464 6.16464 -2.01652e+06) (43.8541 43.8541 -2.14241e+06) (43.8541 43.8541 -2.14241e+06) (20.7212 20.7212 -2.0945e+06) (20.7212 20.7212 -2.0945e+06) (20.7212 20.7212 -2.0945e+06)
450           (1.50399 1.50399 -1.86032e+06) (1.50399 1.50399 -1.86032e+06) (1.50399 1.50399 -1.86032e+06) (4.30061 4.30061 -2.00794e+06) (4.30061 4.30061 -2.00794e+06) (4.30061 4.30061 -2.00794e+06) (31.803 31.803 -2.14513e+06) (31.803 31.803 -2.14513e+06) (15.5346 15.5346 -2.11375e+06) (15.5346 15.5346 -2.11375e+06) (15.5346 15.5346 -2.11375e+06)
500           (0.774473 0.774473 -1.85215e+06) (0.774473 0.774473 -1.85215e+06) (0.774473 0.774473 -1.85215e+06) (2.3298 2.3298 -2.00194e+06) (2.3298 2.3298 -2.00194e+06) (2.3298 2.3298 -2.00194e+06) (17.5802 17.5802 -2.14679e+06) (17.5802 17.5802 -2.14679e+06) (8.9061 8.9061 -2.12714e+06) (8.9061 8.9061 -2.12714e+06) (8.9061 8.9061 -2.12714e+06)
550           (0.469168 0.469168 -1.84649e+06) (0.469168 0.469168 -1.84649e+06) (0.469168 0.469168 -1.84649e+06) (1.29763 1.29763 -1.99782e+06) (1.29763 1.29763 -1.99782e+06) (1.29763 1.29763 -1.99782e+06) (10.7277 10.7277 -2.14791e+06) (10.7277 10.7277 -2.14791e+06) (5.4404 5.4404 -2.13642e+06) (5.4404 5.4404 -2.13642e+06) (5.4404 5.4404 -2.13642e+06)
600           (-0.183277 -0.183277 -1.84269e+06) (-0.183277 -0.183277 -1.84269e+06) (-0.183277 -0.183277 -1.84269e+06) (-0.342254 -0.342254 -1.99491e+06) (-0.342254 -0.342254 -1.99491e+06) (-0.342254 -0.342254 -1.99491e+06) (0.677777 0.677777 -2.14857e+06) (0.677777 0.677777 -2.14857e+06) (0.421717 0.421717 -2.14286e+06) (0.421717 0.421717 -2.14286e+06) (0.421717 0.421717 -2.14286e+06)
650           (-0.170931 -0.170931 -1.83999e+06) (-0.170931 -0.170931 -1.83999e+06) (-0.170931 -0.170931 -1.83999e+06) (-0.316163 -0.316163 -1.99292e+06) (-0.316163 -0.316163 -1.99292e+06) (-0.316163 -0.316163 -1.99292e+06) (1.04005 1.04005 -2.14908e+06) (1.04005 1.04005 -2.14908e+06) (0.568738 0.568738 -2.14731e+06) (0.568738 0.568738 -2.14731e+06) (0.568738 0.568738 -2.14731e+06)
700           (-0.163414 -0.163414 -1.83809e+06) (-0.163414 -0.163414 -1.83809e+06) (-0.163414 -0.163414 -1.83809e+06) (-0.242634 -0.242634 -1.99157e+06) (-0.242634 -0.242634 -1.99157e+06) (-0.242634 -0.242634 -1.99157e+06) (0.601424 0.601424 -2.14947e+06) (0.601424 0.601424 -2.14947e+06) (0.458659 0.458659 -2.15038e+06) (0.458659 0.458659 -2.15038e+06) (0.458659 0.458659 -2.15038e+06)
750           (-0.238708 -0.238708 -1.83688e+06) (-0.238708 -0.238708 -1.83688e+06) (-0.238708 -0.238708 -1.83688e+06) (-0.52905 -0.52905 -1.9906e+06) (-0.52905 -0.52905 -1.9906e+06) (-0.52905 -0.52905 -1.9906e+06) (0.426297 0.426297 -2.14964e+06) (0.426297 0.426297 -2.14964e+06) (0.2468 0.2468 -2.15251e+06) (0.2468 0.2468 -2.15251e+06) (0.2468 0.2468 -2.15251e+06)
800           (-0.245984 -0.245984 -1.83599e+06) (-0.245984 -0.245984 -1.83599e+06) (-0.245984 -0.245984 -1.83599e+06) (-0.448014 -0.448014 -1.98996e+06) (-0.448014 -0.448014 -1.98996e+06) (-0.448014 -0.448014 -1.98996e+06) (-0.858799 -0.858799 -2.14982e+06) (-0.858799 -0.858799 -2.14982e+06) (-0.629087 -0.629087 -2.15396e+06) (-0.629087 -0.629087 -2.15396e+06) (-0.629087 -0.629087 -2.15396e+06)
850           (-0.12398 -0.12398 -1.83545e+06) (-0.12398 -0.12398 -1.83545e+06) (-0.12398 -0.12398 -1.83545e+06) (-0.18915 -0.18915 -1.98952e+06) (-0.18915 -0.18915 -1.98952e+06) (-0.18915 -0.18915 -1.98952e+06) (0.867116 0.867116 -2.14989e+06) (0.867116 0.867116 -2.14989e+06) (0.43409 0.43409 -2.15491e+06) (0.43409 0.43409 -2.15491e+06) (0.43409 0.43409 -2.15491e+06)
900           (-0.165491 -0.165491 -1.83506e+06) (-0.165491 -0.165491 -1.83506e+06) (-0.165491 -0.165491 -1.83506e+06) (-0.305696 -0.305696 -1.9892e+06) (-0.305696 -0.305696 -1.9892e+06) (-0.305696 -0.305696 -1.9892e+06) (0.660182 0.660182 -2.14994e+06) (0.660182 0.660182 -2.14994e+06) (0.324382 0.324382 -2.1556e+06) (0.324382 0.324382 -2.1556e+06) (0.324382 0.324382 -2.1556e+06)
950           (-0.162117 -0.162117 -1.83484e+06) (-0.162117 -0.162117 -1.83484e+06) (-0.162117 -0.162117 -1.83484e+06) (-0.36505 -0.36505 -1.98899e+06) (-0.36505 -0.36505 -1.98899e+06) (-0.36505 -0.36505 -1.98899e+06) (-0.0148356 -0.0148356 -2.14995e+06) (-0.0148356 -0.0148356 -2.14995e+06) (-0.11608 -0.11608 -2.15605e+06) (-0.11608 -0.11608 -2.15605e+06) (-0.11608 -0.11608 -2.15605e+06)
1000          (-0.228601 -0.228601 -1.8346e+06) (-0.228601 -0.228601 -1.8346e+06) (-0.228601 -0.228601 -1.8346e+06) (-0.520822 -0.520822 -1.98886e+06) (-0.520822 -0.520822 -1.98886e+06) (-0.520822 -0.520822 -1.98886e+06) (0.170177 0.170177 -2.15003e+06) (0.170177 0.170177 -2.15003e+06) (0.106583 0.106583 -2.15637e+06) (0.106583 0.106583 -2.15637e+06) (0.106583 0.106583 -2.15637e+06)
1050          (-0.239576 -0.239576 -1.83449e+06) (-0.239576 -0.239576 -1.83449e+06) (-0.239576 -0.239576 -1.83449e+06) (-0.563556 -0.563556 -1.98876e+06) (-0.563556 -0.563556 -1.98876e+06) (-0.563556 -0.563556 -1.98876e+06) (-0.341669 -0.341669 -2.15003e+06) (-0.341669 -0.341669 -2.15003e+06) (-0.198448 -0.198448 -2.15658e+06) (-0.198448 -0.198448 -2.15658e+06) (-0.198448 -0.198448 -2.15658e+06)
1100          (-0.250607 -0.250607 -1.83442e+06) (-0.250607 -0.250607 -1.83442e+06) (-0.250607 -0.250607 -1.83442e+06) (-0.584753 -0.584753 -1.9887e+06) (-0.584753 -0.584753 -1.9887e+06) (-0.584753 -0.584753 -1.9887e+06) (-0.546868 -0.546868 -2.15004e+06) (-0.546868 -0.546868 -2.15004e+06) (-0.367221 -0.367221 -2.15672e+06) (-0.367221 -0.367221 -2.15672e+06) (-0.367221 -0.367221 -2.15672e+06)
1150          (-0.303892 -0.303892 -1.83425e+06) (-0.303892 -0.303892 -1.83425e+06) (-0.303892 -0.303892 -1.83425e+06) (-0.387373 -0.387373 -1.98868e+06) (-0.387373 -0.387373 -1.98868e+06) (-0.387373 -0.387373 -1.98868e+06) (1.65588 1.65588 -2.15014e+06) (1.65588 1.65588 -2.15014e+06) (1.17555 1.17555 -2.15683e+06) (1.17555 1.17555 -2.15683e+06) (1.17555 1.17555 -2.15683e+06)
1200          (-0.204924 -0.204924 -1.83423e+06) (-0.204924 -0.204924 -1.83423e+06) (-0.204924 -0.204924 -1.83423e+06) (-0.37343 -0.37343 -1.98864e+06) (-0.37343 -0.37343 -1.98864e+06) (-0.37343 -0.37343 -1.98864e+06) (0.0156187 0.0156187 -2.15013e+06) (0.0156187 0.0156187 -2.15013e+06) (0.0790881 0.0790882 -2.1569e+06) (0.0790881 0.0790882 -2.1569e+06) (0.0790881 0.0790882 -2.1569e+06)
1250          (-0.188044 -0.188044 -1.83422e+06) (-0.188044 -0.188044 -1.83422e+06) (-0.188044 -0.188044 -1.83422e+06) (-0.355232 -0.355232 -1.98862e+06) (-0.355232 -0.355232 -1.98862e+06) (-0.355232 -0.355232 -1.98862e+06) (0.0877938 0.0877938 -2.15013e+06) (0.0877938 0.0877938 -2.15013e+06) (0.0478127 0.0478128 -2.15693e+06) (0.0478127 0.0478128 -2.15693e+06) (0.0478127 0.0478128 -2.15693e+06)
1300          (-0.171553 -0.171553 -1.83421e+06) (-0.171553 -0.171553 -1.83421e+06) (-0.171553 -0.171553 -1.83421e+06) (-0.304398 -0.304398 -1.98861e+06) (-0.304398 -0.304398 -1.98861e+06) (-0.304398 -0.304398 -1.98861e+06) (0.379752 0.379752 -2.15012e+06) (0.379752 0.379752 -2.15012e+06) (0.311076 0.311076 -2.15696e+06) (0.311076 0.311076 -2.15696e+06) (0.311076 0.311076 -2.15696e+06)
1350          (-0.191698 -0.191698 -1.8342e+06) (-0.191698 -0.191698 -1.8342e+06) (-0.191698 -0.191698 -1.8342e+06) (-0.372079 -0.372079 -1.98859e+06) (-0.372079 -0.372079 -1.98859e+06) (-0.372079 -0.372079 -1.98859e+06) (-0.117634 -0.117634 -2.15012e+06) (-0.117634 -0.117634 -2.15012e+06) (-0.111263 -0.111263 -2.15699e+06) (-0.111263 -0.111263 -2.15699e+06) (-0.111263 -0.111263 -2.15699e+06)
1400          (-0.191698 -0.191698 -1.8342e+06) (-0.191698 -0.191698 -1.8342e+06) (-0.191698 -0.191698 -1.8342e+06) (-0.372079 -0.372079 -1.98859e+06) (-0.372079 -0.372079 -1.98859e+06) (-0.372079 -0.372079 -1.98859e+06) (-0.117634 -0.117634 -2.15012e+06) (-0.117634 -0.117634 -2.15012e+06) (-0.111263 -0.111263 -2.15699e+06) (-0.111263 -0.111263 -2.15699e+06) (-0.111263 -0.111263 -2.15699e+06)
1450          (-0.191698 -0.191698 -1.8342e+06) (-0.191698 -0.191698 -1.8342e+06) (-0.191698 -0.191698 -1.8342e+06) (-0.372079 -0.372079 -1.98859e+06) (-0.372079 -0.372079 -1.98859e+06) (-0.372079 -0.372079 -1.98859e+06) (-0.117634 -0.117634 -2.15012e+06) (-0.117634 -0.117634 -2.15012e+06) (-0.111263 -0.111263 -2.15699e+06) (-0.111263 -0.111263 -2.15699e+06) (-0.111263 -0.111263 -2.15699e+06)
1500          (-0.191698 -0.191698 -1.8342e+06) (-0.191698 -0.191698 -1.8342e+06) (-0.191698 -0.191698 -1.8342e+06) (-0.372079 -0.372079 -1.98859e+06) (-0.372079 -0.372079 -1.98859e+06) (-0.372079 -0.372079 -1.98859e+06) (-0.117634 -0.117634 -2.15012e+06) (-0.117634 -0.117634 -2.15012e+06) (-0.111263 -0.111263 -2.15699e+06) (-0.111263 -0.111263 -2.15699e+06) (-0.111263 -0.111263 -2.15699e+06)
1550          (-0.191698 -0.191698 -1.8342e+06) (-0.191698 -0.191698 -1.8342e+06) (-0.191698 -0.191698 -1.8342e+06) (-0.372079 -0.372079 -1.98859e+06) (-0.372079 -0.372079 -1.98859e+06) (-0.372079 -0.372079 -1.98859e+06) (-0.117634 -0.117634 -2.15012e+06) (-0.117634 -0.117634 -2.15012e+06) (-0.111263 -0.111263 -2.15699e+06) (-0.111263 -0.111263 -2.15699e+06) (-0.111263 -0.111263 -2.15699e+06)
1600          (-0.191698 -0.191698 -1.8342e+06) (-0.191698 -0.191698 -1.8342e+06) (-0.191698 -0.191698 -1.8342e+06) (-0.372079 -0.372079 -1.98859e+06) (-0.372079 -0.372079 -1.98859e+06) (-0.372079 -0.372079 -1.98859e+06) (-0.117634 -0.117634 -2.15012e+06) (-0.117634 -0.117634 -2.15012e+06) (-0.111263 -0.111263 -2.15699e+06) (-0.111263 -0.111263 -2.15699e+06) (-0.111263 -0.111263 -2.15699e+06)
1650          (-0.191698 -0.191698 -1.8342e+06) (-0.191698 -0.191698 -1.8342e+06) (-0.191698 -0.191698 -1.8342e+06) (-0.372079 -0.372079 -1.98859e+06) (-0.372079 -0.372079 -1.98859e+06) (-0.372079 -0.372079 -1.98859e+06) (-0.117634 -0.117634 -2.15012e+06) (-0.117634 -0.117634 -2.15012e+06) (-0.111263 -0.111263 -2.15699e+06) (-0.111263 -0.111263 -2.15699e+06) (-0.111263 -0.111263 -2.15699e+06)
1700          (-0.191698 -0.191698 -1.8342e+06) (-0.191698 -0.191698 -1.8342e+06) (-0.191698 -0.191698 -1.8342e+06) (-0.372079 -0.372079 -1.98859e+06) (-0.372079 -0.372079 -1.98859e+06) (-0.372079 -0.372079 -1.98859e+06) (-0.117634 -0.117634 -2.15012e+06) (-0.117634 -0.117634 -2.15012e+06) (-0.111263 -0.111263 -2.15699e+06) (-0.111263 -0.111263 -2.15699e+06) (-0.111263 -0.111263 -2.15699e+06)
1750          (-0.191698 -0.191698 -1.8342e+06) (-0.191698 -0.191698 -1.8342e+06) (-0.191698 -0.191698 -1.8342e+06) (-0.372079 -0.372079 -1.98859e+06) (-0.372079 -0.372079 -1.98859e+06) (-0.372079 -0.372079 -1.98859e+06) (-0.117634 -0.117634 -2.15012e+06) (-0.117634 -0.117634 -2.15012e+06) (-0.111263 -0.111263 -2.15699e+06) (-0.111263 -0.111263 -2.15699e+06) (-0.111263 -0.111263 -2.15699e+06)
1800          (-0.191698 -0.191698 -1.8342e+06) (-0.191698 -0.191698 -1.8342e+06) (-0.191698 -0.191698 -1.8342e+06) (-0.372079 -0.372079 -1.98859e+06) (-0.372079 -0.372079 -1.98859e+06) (-0.372079 -0.372079 -1.98859e+06) (-0.117634 -0.117634 -2.15012e+06) (-0.117634 -0.117634 -2.15012e+06) (-0.111263 -0.111263 -2.15699e+06) (-0.111263 -0.111263 -2.15699e+06) (-0.111263 -0.111263 -2.15699e+06)
1850          (-0.191698 -0.191698 -1.8342e+06) (-0.191698 -0.191698 -1.8342e+06) (-0.191698 -0.191698 -1.8342e+06) (-0.372079 -0.372079 -1.98859e+06) (-0.372079 -0.372079 -1.98859e+06) (-0.372079 -0.372079 -1.98859e+06) (-0.117634 -0.117634 -2.15012e+06) (-0.117634 -0.117634 -2.15012e+06) (-0.111263 -0.111263 -2.15699e+06) (-0.111263 -0.111263 -2.15699e+06) (-0.111263 -0.111263 -2.15699e+06)
1900          (-0.191698 -0.191698 -1.8342e+06) (-0.191698 -0.191698 -1.8342e+06) (-0.191698 -0.191698 -1.8342e+06) (-0.372079 -0.372079 -1.98859e+06) (-0.372079 -0.372079 -1.98859e+06) (-0.372079 -0.372079 -1.98859e+06) (-0.117634 -0.117634 -2.15012e+06) (-0.117634 -0.117634 -2.15012e+06) (-0.111263 -0.111263 -2.15699e+06) (-0.111263 -0.111263 -2.15699e+06) (-0.111263 -0.111263 -2.15699e+06)
1950          (-0.191698 -0.191698 -1.8342e+06) (-0.191698 -0.191698 -1.8342e+06) (-0.191698 -0.191698 -1.8342e+06) (-0.372079 -0.372079 -1.98859e+06) (-0.372079 -0.372079 -1.98859e+06) (-0.372079 -0.372079 -1.98859e+06) (-0.117634 -0.117634 -2.15012e+06) (-0.117634 -0.117634 -2.15012e+06) (-0.111263 -0.111263 -2.15699e+06) (-0.111263 -0.111263 -2.15699e+06) (-0.111263 -0.111263 -2.15699e+06)
2000          (-0.191698 -0.191698 -1.8342e+06) (-0.191698 -0.191698 -1.8342e+06) (-0.191698 -0.191698 -1.8342e+06) (-0.372079 -0.372079 -1.98859e+06) (-0.372079 -0.372079 -1.98859e+06) (-0.372079 -0.372079 -1.98859e+06) (-0.117634 -0.117634 -2.15012e+06) (-0.117634 -0.117634 -2.15012e+06) (-0.111263 -0.111263 -2.15699e+06) (-0.111263 -0.111263 -2.15699e+06) (-0.111263 -0.111263 -2.15699e+06)
2050          (-0.191698 -0.191698 -1.8342e+06) (-0.191698 -0.191698 -1.8342e+06) (-0.191698 -0.191698 -1.8342e+06) (-0.372079 -0.372079 -1.98859e+06) (-0.372079 -0.372079 -1.98859e+06) (-0.372079 -0.372079 -1.98859e+06) (-0.117634 -0.117634 -2.15012e+06) (-0.117634 -0.117634 -2.15012e+06) (-0.111263 -0.111263 -2.15699e+06) (-0.111263 -0.111263 -2.15699e+06) (-0.111263 -0.111263 -2.15699e+06)
2100          (-0.191698 -0.191698 -1.8342e+06) (-0.191698 -0.191698 -1.8342e+06) (-0.191698 -0.191698 -1.8342e+06) (-0.372079 -0.372079 -1.98859e+06) (-0.372079 -0.372079 -1.98859e+06) (-0.372079 -0.372079 -1.98859e+06) (-0.117634 -0.117634 -2.15012e+06) (-0.117634 -0.117634 -2.15012e+06) (-0.111263 -0.111263 -2.15699e+06) (-0.111263 -0.111263 -2.15699e+06) (-0.111263 -0.111263 -2.15699e+06)
2150          (-0.191698 -0.191698 -1.8342e+06) (-0.191698 -0.191698 -1.8342e+06) (-0.191698 -0.191698 -1.8342e+06) (-0.372079 -0.372079 -1.98859e+06) (-0.372079 -0.372079 -1.98859e+06) (-0.372079 -0.372079 -1.98859e+06) (-0.117634 -0.117634 -2.15012e+06) (-0.117634 -0.117634 -2.15012e+06) (-0.111263 -0.111263 -2.15699e+06) (-0.111263 -0.111263 -2.15699e+06) (-0.111263 -0.111263 -2.15699e+06)
2200          (-0.191698 -0.191698 -1.8342e+06) (-0.191698 -0.191698 -1.8342e+06) (-0.191698 -0.191698 -1.8342e+06) (-0.372079 -0.372079 -1.98859e+06) (-0.372079 -0.372079 -1.98859e+06) (-0.372079 -0.372079 -1.98859e+06) (-0.117634 -0.117634 -2.15012e+06) (-0.117634 -0.117634 -2.15012e+06) (-0.111263 -0.111263 -2.15699e+06) (-0.111263 -0.111263 -2.15699e+06) (-0.111263 -0.111263 -2.15699e+06)
2250          (-0.191698 -0.191698 -1.8342e+06) (-0.191698 -0.191698 -1.8342e+06) (-0.191698 -0.191698 -1.8342e+06) (-0.372079 -0.372079 -1.98859e+06) (-0.372079 -0.372079 -1.98859e+06) (-0.372079 -0.372079 -1.98859e+06) (-0.117634 -0.117634 -2.15012e+06) (-0.117634 -0.117634 -2.15012e+06) (-0.111263 -0.111263 -2.15699e+06) (-0.111263 -0.111263 -2.15699e+06) (-0.111263 -0.111263 -2.15699e+06)
2300          (-0.191698 -0.191698 -1.8342e+06) (-0.191698 -0.191698 -1.8342e+06) (-0.191698 -0.191698 -1.8342e+06) (-0.372079 -0.372079 -1.98859e+06) (-0.372079 -0.372079 -1.98859e+06) (-0.372079 -0.372079 -1.98859e+06) (-0.117634 -0.117634 -2.15012e+06) (-0.117634 -0.117634 -2.15012e+06) (-0.111263 -0.111263 -2.15699e+06) (-0.111263 -0.111263 -2.15699e+06) (-0.111263 -0.111263 -2.15699e+06)
2350          (-0.191698 -0.191698 -1.8342e+06) (-0.191698 -0.191698 -1.8342e+06) (-0.191698 -0.191698 -1.8342e+06) (-0.372079 -0.372079 -1.98859e+06) (-0.372079 -0.372079 -1.98859e+06) (-0.372079 -0.372079 -1.98859e+06) (-0.117634 -0.117634 -2.15012e+06) (-0.117634 -0.117634 -2.15012e+06) (-0.111263 -0.111263 -2.15699e+06) (-0.111263 -0.111263 -2.15699e+06) (-0.111263 -0.111263 -2.15699e+06)
2400          (-0.191698 -0.191698 -1.8342e+06) (-0.191698 -0.191698 -1.8342e+06) (-0.191698 -0.191698 -1.8342e+06) (-0.372079 -0.372079 -1.98859e+06) (-0.372079 -0.372079 -1.98859e+06) (-0.372079 -0.372079 -1.98859e+06) (-0.117634 -0.117634 -2.15012e+06) (-0.117634 -0.117634 -2.15012e+06) (-0.111263 -0.111263 -2.15699e+06) (-0.111263 -0.111263 -2.15699e+06) (-0.111263 -0.111263 -2.15699e+06)
2450          (-0.191698 -0.191698 -1.8342e+06) (-0.191698 -0.191698 -1.8342e+06) (-0.191698 -0.191698 -1.8342e+06) (-0.372079 -0.372079 -1.98859e+06) (-0.372079 -0.372079 -1.98859e+06) (-0.372079 -0.372079 -1.98859e+06) (-0.117634 -0.117634 -2.15012e+06) (-0.117634 -0.117634 -2.15012e+06) (-0.111263 -0.111263 -2.15699e+06) (-0.111263 -0.111263 -2.15699e+06) (-0.111263 -0.111263 -2.15699e+06)
2500          (-0.191698 -0.191698 -1.8342e+06) (-0.191698 -0.191698 -1.8342e+06) (-0.191698 -0.191698 -1.8342e+06) (-0.372079 -0.372079 -1.98859e+06) (-0.372079 -0.372079 -1.98859e+06) (-0.372079 -0.372079 -1.98859e+06) (-0.117634 -0.117634 -2.15012e+06) (-0.117634 -0.117634 -2.15012e+06) (-0.111263 -0.111263 -2.15699e+06) (-0.111263 -0.111263 -2.15699e+06) (-0.111263 -0.111263 -2.15699e+06)
2550          (-0.191698 -0.191698 -1.8342e+06) (-0.191698 -0.191698 -1.8342e+06) (-0.191698 -0.191698 -1.8342e+06) (-0.372079 -0.372079 -1.98859e+06) (-0.372079 -0.372079 -1.98859e+06) (-0.372079 -0.372079 -1.98859e+06) (-0.117634 -0.117634 -2.15012e+06) (-0.117634 -0.117634 -2.15012e+06) (-0.111263 -0.111263 -2.15699e+06) (-0.111263 -0.111263 -2.15699e+06) (-0.111263 -0.111263 -2.15699e+06)
2600          (-0.191698 -0.191698 -1.8342e+06) (-0.191698 -0.191698 -1.8342e+06) (-0.191698 -0.191698 -1.8342e+06) (-0.372079 -0.372079 -1.98859e+06) (-0.372079 -0.372079 -1.98859e+06) (-0.372079 -0.372079 -1.98859e+06) (-0.117634 -0.117634 -2.15012e+06) (-0.117634 -0.117634 -2.15012e+06) (-0.111263 -0.111263 -2.15699e+06) (-0.111263 -0.111263 -2.15699e+06) (-0.111263 -0.111263 -2.15699e+06)
2650          (-0.191698 -0.191698 -1.8342e+06) (-0.191698 -0.191698 -1.8342e+06) (-0.191698 -0.191698 -1.8342e+06) (-0.372079 -0.372079 -1.98859e+06) (-0.372079 -0.372079 -1.98859e+06) (-0.372079 -0.372079 -1.98859e+06) (-0.117634 -0.117634 -2.15012e+06) (-0.117634 -0.117634 -2.15012e+06) (-0.111263 -0.111263 -2.15699e+06) (-0.111263 -0.111263 -2.15699e+06) (-0.111263 -0.111263 -2.15699e+06)
2700          (-0.191698 -0.191698 -1.8342e+06) (-0.191698 -0.191698 -1.8342e+06) (-0.191698 -0.191698 -1.8342e+06) (-0.372079 -0.372079 -1.98859e+06) (-0.372079 -0.372079 -1.98859e+06) (-0.372079 -0.372079 -1.98859e+06) (-0.117634 -0.117634 -2.15012e+06) (-0.117634 -0.117634 -2.15012e+06) (-0.111263 -0.111263 -2.15699e+06) (-0.111263 -0.111263 -2.15699e+06) (-0.111263 -0.111263 -2.15699e+06)
2750          (-0.191698 -0.191698 -1.8342e+06) (-0.191698 -0.191698 -1.8342e+06) (-0.191698 -0.191698 -1.8342e+06) (-0.372079 -0.372079 -1.98859e+06) (-0.372079 -0.372079 -1.98859e+06) (-0.372079 -0.372079 -1.98859e+06) (-0.117634 -0.117634 -2.15012e+06) (-0.117634 -0.117634 -2.15012e+06) (-0.111263 -0.111263 -2.15699e+06) (-0.111263 -0.111263 -2.15699e+06) (-0.111263 -0.111263 -2.15699e+06)
2800          (-0.191698 -0.191698 -1.8342e+06) (-0.191698 -0.191698 -1.8342e+06) (-0.191698 -0.191698 -1.8342e+06) (-0.372079 -0.372079 -1.98859e+06) (-0.372079 -0.372079 -1.98859e+06) (-0.372079 -0.372079 -1.98859e+06) (-0.117634 -0.117634 -2.15012e+06) (-0.117634 -0.117634 -2.15012e+06) (-0.111263 -0.111263 -2.15699e+06) (-0.111263 -0.111263 -2.15699e+06) (-0.111263 -0.111263 -2.15699e+06)
2850          (-0.191698 -0.191698 -1.8342e+06) (-0.191698 -0.191698 -1.8342e+06) (-0.191698 -0.191698 -1.8342e+06) (-0.372079 -0.372079 -1.98859e+06) (-0.372079 -0.372079 -1.98859e+06) (-0.372079 -0.372079 -1.98859e+06) (-0.117634 -0.117634 -2.15012e+06) (-0.117634 -0.117634 -2.15012e+06) (-0.111263 -0.111263 -2.15699e+06) (-0.111263 -0.111263 -2.15699e+06) (-0.111263 -0.111263 -2.15699e+06)
2900          (-0.191698 -0.191698 -1.8342e+06) (-0.191698 -0.191698 -1.8342e+06) (-0.191698 -0.191698 -1.8342e+06) (-0.372079 -0.372079 -1.98859e+06) (-0.372079 -0.372079 -1.98859e+06) (-0.372079 -0.372079 -1.98859e+06) (-0.117634 -0.117634 -2.15012e+06) (-0.117634 -0.117634 -2.15012e+06) (-0.111263 -0.111263 -2.15699e+06) (-0.111263 -0.111263 -2.15699e+06) (-0.111263 -0.111263 -2.15699e+06)
2950          (-0.191698 -0.191698 -1.8342e+06) (-0.191698 -0.191698 -1.8342e+06) (-0.191698 -0.191698 -1.8342e+06) (-0.372079 -0.372079 -1.98859e+06) (-0.372079 -0.372079 -1.98859e+06) (-0.372079 -0.372079 -1.98859e+06) (-0.117634 -0.117634 -2.15012e+06) (-0.117634 -0.117634 -2.15012e+06) (-0.111263 -0.111263 -2.15699e+06) (-0.111263 -0.111263 -2.15699e+06) (-0.111263 -0.111263 -2.15699e+06)
3000          (-0.191698 -0.191698 -1.8342e+06) (-0.191698 -0.191698 -1.8342e+06) (-0.191698 -0.191698 -1.8342e+06) (-0.372079 -0.372079 -1.98859e+06) (-0.372079 -0.372079 -1.98859e+06) (-0.372079 -0.372079 -1.98859e+06) (-0.117634 -0.117634 -2.15012e+06) (-0.117634 -0.117634 -2.15012e+06) (-0.111263 -0.111263 -2.15699e+06) (-0.111263 -0.111263 -2.15699e+06) (-0.111263 -0.111263 -2.15699e+06)
3050          (-0.191698 -0.191698 -1.8342e+06) (-0.191698 -0.191698 -1.8342e+06) (-0.191698 -0.191698 -1.8342e+06) (-0.372079 -0.372079 -1.98859e+06) (-0.372079 -0.372079 -1.98859e+06) (-0.372079 -0.372079 -1.98859e+06) (-0.117634 -0.117634 -2.15012e+06) (-0.117634 -0.117634 -2.15012e+06) (-0.111263 -0.111263 -2.15699e+06) (-0.111263 -0.111263 -2.15699e+06) (-0.111263 -0.111263 -2.15699e+06)
3100          (-0.191698 -0.191698 -1.8342e+06) (-0.191698 -0.191698 -1.8342e+06) (-0.191698 -0.191698 -1.8342e+06) (-0.372079 -0.372079 -1.98859e+06) (-0.372079 -0.372079 -1.98859e+06) (-0.372079 -0.372079 -1.98859e+06) (-0.117634 -0.117634 -2.15012e+06) (-0.117634 -0.117634 -2.15012e+06) (-0.111263 -0.111263 -2.15699e+06) (-0.111263 -0.111263 -2.15699e+06) (-0.111263 -0.111263 -2.15699e+06)
3150          (-0.191698 -0.191698 -1.8342e+06) (-0.191698 -0.191698 -1.8342e+06) (-0.191698 -0.191698 -1.8342e+06) (-0.372079 -0.372079 -1.98859e+06) (-0.372079 -0.372079 -1.98859e+06) (-0.372079 -0.372079 -1.98859e+06) (-0.117634 -0.117634 -2.15012e+06) (-0.117634 -0.117634 -2.15012e+06) (-0.111263 -0.111263 -2.15699e+06) (-0.111263 -0.111263 -2.15699e+06) (-0.111263 -0.111263 -2.15699e+06)
3200          (-0.191698 -0.191698 -1.8342e+06) (-0.191698 -0.191698 -1.8342e+06) (-0.191698 -0.191698 -1.8342e+06) (-0.372079 -0.372079 -1.98859e+06) (-0.372079 -0.372079 -1.98859e+06) (-0.372079 -0.372079 -1.98859e+06) (-0.117634 -0.117634 -2.15012e+06) (-0.117634 -0.117634 -2.15012e+06) (-0.111263 -0.111263 -2.15699e+06) (-0.111263 -0.111263 -2.15699e+06) (-0.111263 -0.111263 -2.15699e+06)
3250          (-0.191698 -0.191698 -1.8342e+06) (-0.191698 -0.191698 -1.8342e+06) (-0.191698 -0.191698 -1.8342e+06) (-0.372079 -0.372079 -1.98859e+06) (-0.372079 -0.372079 -1.98859e+06) (-0.372079 -0.372079 -1.98859e+06) (-0.117634 -0.117634 -2.15012e+06) (-0.117634 -0.117634 -2.15012e+06) (-0.111263 -0.111263 -2.15699e+06) (-0.111263 -0.111263 -2.15699e+06) (-0.111263 -0.111263 -2.15699e+06)
3300          (-0.191698 -0.191698 -1.8342e+06) (-0.191698 -0.191698 -1.8342e+06) (-0.191698 -0.191698 -1.8342e+06) (-0.372079 -0.372079 -1.98859e+06) (-0.372079 -0.372079 -1.98859e+06) (-0.372079 -0.372079 -1.98859e+06) (-0.117634 -0.117634 -2.15012e+06) (-0.117634 -0.117634 -2.15012e+06) (-0.111263 -0.111263 -2.15699e+06) (-0.111263 -0.111263 -2.15699e+06) (-0.111263 -0.111263 -2.15699e+06)
3350          (-0.191698 -0.191698 -1.8342e+06) (-0.191698 -0.191698 -1.8342e+06) (-0.191698 -0.191698 -1.8342e+06) (-0.372079 -0.372079 -1.98859e+06) (-0.372079 -0.372079 -1.98859e+06) (-0.372079 -0.372079 -1.98859e+06) (-0.117634 -0.117634 -2.15012e+06) (-0.117634 -0.117634 -2.15012e+06) (-0.111263 -0.111263 -2.15699e+06) (-0.111263 -0.111263 -2.15699e+06) (-0.111263 -0.111263 -2.15699e+06)
3400          (-0.191698 -0.191698 -1.8342e+06) (-0.191698 -0.191698 -1.8342e+06) (-0.191698 -0.191698 -1.8342e+06) (-0.372079 -0.372079 -1.98859e+06) (-0.372079 -0.372079 -1.98859e+06) (-0.372079 -0.372079 -1.98859e+06) (-0.117634 -0.117634 -2.15012e+06) (-0.117634 -0.117634 -2.15012e+06) (-0.111263 -0.111263 -2.15699e+06) (-0.111263 -0.111263 -2.15699e+06) (-0.111263 -0.111263 -2.15699e+06)
3450          (-0.191698 -0.191698 -1.8342e+06) (-0.191698 -0.191698 -1.8342e+06) (-0.191698 -0.191698 -1.8342e+06) (-0.372079 -0.372079 -1.98859e+06) (-0.372079 -0.372079 -1.98859e+06) (-0.372079 -0.372079 -1.98859e+06) (-0.117634 -0.117634 -2.15012e+06) (-0.117634 -0.117634 -2.15012e+06) (-0.111263 -0.111263 -2.15699e+06) (-0.111263 -0.111263 -2.15699e+06) (-0.111263 -0.111263 -2.15699e+06)
3500          (-0.191698 -0.191698 -1.8342e+06) (-0.191698 -0.191698 -1.8342e+06) (-0.191698 -0.191698 -1.8342e+06) (-0.372079 -0.372079 -1.98859e+06) (-0.372079 -0.372079 -1.98859e+06) (-0.372079 -0.372079 -1.98859e+06) (-0.117634 -0.117634 -2.15012e+06) (-0.117634 -0.117634 -2.15012e+06) (-0.111263 -0.111263 -2.15699e+06) (-0.111263 -0.111263 -2.15699e+06) (-0.111263 -0.111263 -2.15699e+06)
3550          (-0.191698 -0.191698 -1.8342e+06) (-0.191698 -0.191698 -1.8342e+06) (-0.191698 -0.191698 -1.8342e+06) (-0.372079 -0.372079 -1.98859e+06) (-0.372079 -0.372079 -1.98859e+06) (-0.372079 -0.372079 -1.98859e+06) (-0.117634 -0.117634 -2.15012e+06) (-0.117634 -0.117634 -2.15012e+06) (-0.111263 -0.111263 -2.15699e+06) (-0.111263 -0.111263 -2.15699e+06) (-0.111263 -0.111263 -2.15699e+06)
3600          (-0.191698 -0.191698 -1.8342e+06) (-0.191698 -0.191698 -1.8342e+06) (-0.191698 -0.191698 -1.8342e+06) (-0.372079 -0.372079 -1.98859e+06) (-0.372079 -0.372079 -1.98859e+06) (-0.372079 -0.372079 -1.98859e+06) (-0.117634 -0.117634 -2.15012e+06) (-0.117634 -0.117634 -2.15012e+06) (-0.111263 -0.111263 -2.15699e+06) (-0.111263 -0.111263 -2.15699e+06) (-0.111263 -0.111263 -2.15699e+06)
3650          (-0.191698 -0.191698 -1.8342e+06) (-0.191698 -0.191698 -1.8342e+06) (-0.191698 -0.191698 -1.8342e+06) (-0.372079 -0.372079 -1.98859e+06) (-0.372079 -0.372079 -1.98859e+06) (-0.372079 -0.372079 -1.98859e+06) (-0.117634 -0.117634 -2.15012e+06) (-0.117634 -0.117634 -2.15012e+06) (-0.111263 -0.111263 -2.15699e+06) (-0.111263 -0.111263 -2.15699e+06) (-0.111263 -0.111263 -2.15699e+06)
3700          (-0.191698 -0.191698 -1.8342e+06) (-0.191698 -0.191698 -1.8342e+06) (-0.191698 -0.191698 -1.8342e+06) (-0.372079 -0.372079 -1.98859e+06) (-0.372079 -0.372079 -1.98859e+06) (-0.372079 -0.372079 -1.98859e+06) (-0.117634 -0.117634 -2.15012e+06) (-0.117634 -0.117634 -2.15012e+06) (-0.111263 -0.111263 -2.15699e+06) (-0.111263 -0.111263 -2.15699e+06) (-0.111263 -0.111263 -2.15699e+06)
3750          (-0.191698 -0.191698 -1.8342e+06) (-0.191698 -0.191698 -1.8342e+06) (-0.191698 -0.191698 -1.8342e+06) (-0.372079 -0.372079 -1.98859e+06) (-0.372079 -0.372079 -1.98859e+06) (-0.372079 -0.372079 -1.98859e+06) (-0.117634 -0.117634 -2.15012e+06) (-0.117634 -0.117634 -2.15012e+06) (-0.111263 -0.111263 -2.15699e+06) (-0.111263 -0.111263 -2.15699e+06) (-0.111263 -0.111263 -2.15699e+06)