# Probe 0 (0.0015 0.0015 0)
# Probe 1 (0.0015 0.0015 0.01)
# Probe 2 (0.0015 0.0015 0.02)
# Probe 3 (0.0015 0.0015 0.03)
# Probe 4 (0.0015 0.0015 0.04)
# Probe 5 (0.0015 0.0015 0.05)
# Probe 6 (0.0015 0.0015 0.06)
# Probe 7 (0.0015 0.0015 0.07)
# Probe 8 (0.0015 0.0015 0.08)
# Probe 9 (0.0015 0.0015 0.09)
# Probe 10 (0.0015 0.0015 0.1)
# Time        0             1             2             3             4             5             6             7             8             9             10           
50            (0.00502165 0.00502165 6410.04) (0.00502165 0.00502165 6410.04) (0.00502165 0.00502165 6410.04) (0.00539292 0.00539292 2989.31) (0.00539292 0.00539292 2989.31) (0.00539292 0.00539292 2989.31) (0.00330267 0.00330267 1616.77) (0.00330267 0.00330267 1616.77) (-0.00886939 -0.00886939 654.048) (-0.00886939 -0.00886939 654.048) (-0.00886939 -0.00886939 654.048)
100           (0.0087613 0.0087613 5006.95) (0.0087613 0.0087613 5006.95) (0.0087613 0.0087613 5006.95) (0.0160586 0.0160586 2796.51) (0.0160586 0.0160586 2796.51) (0.0160586 0.0160586 2796.51) (0.0121295 0.0121295 2469.6) (0.0121295 0.0121295 2469.6) (-0.00559396 -0.00559396 666.662) (-0.00559396 -0.00559396 666.662) (-0.00559396 -0.00559396 666.662)
150           (-0.00761287 -0.00761287 4478.19) (-0.00761287 -0.00761287 4478.19) (-0.00761287 -0.00761287 4478.19) (-0.0174711 -0.0174711 2632.27) (-0.0174711 -0.0174711 2632.27) (-0.0174711 -0.0174711 2632.27) (-0.0219928 -0.0219928 2667.16) (-0.0219928 -0.0219928 2667.16) (0.0010244 0.0010244 711.831) (0.0010244 0.0010244 711.831) (0.0010244 0.0010244 711.831)
200           (-0.00366005 -0.00366005 4233.08) (-0.00366005 -0.00366005 4233.08) (-0.00366005 -0.00366005 4233.08) (-0.00963091 -0.00963091 2533.62) (-0.00963091 -0.00963091 2533.62) (-0.00963091 -0.00963091 2533.62) (-0.0151272 -0.0151272 2703.94) (-0.0151272 -0.0151272 2703.94) (-0.00247967 -0.00247967 751.895) (-0.00247967 -0.00247967 751.895) (-0.00247967 -0.00247967 751.895)
250           (-0.00205123 -0.00205123 4096.69) (-0.00205123 -0.00205123 4096.69) (-0.00205123 -0.00205123 4096.69) (-0.00579586 -0.00579586 2471.74) (-0.00579586 -0.00579586 2471.74) (-0.00579586 -0.00579586 2471.74) (-0.0099166 -0.0099166 2704.89) (-0.0099166 -0.0099166 2704.89) (-0.00304588 -0.00304588 782.126) (-0.00304588 -0.00304588 782.126) (-0.00304588 -0.00304588 782.126)
300           (-0.00117622 -0.00117622 4012.54) (-0.00117622 -0.00117622 4012.54) (-0.00117622 -0.00117622 4012.54) (-0.00347862 -0.00347862 2431.37) (-0.00347862 -0.00347862 2431.37) (-0.00347862 -0.00347862 2431.37) (-0.00621292 -0.00621292 2698.48) (-0.00621292 -0.00621292 2698.48) (-0.00247196 -0.00247196 803.953) (-0.00247196 -0.00247196 803.953) (-0.00247196 -0.00247196 803.953)
350           (-0.000779829 -0.000779829 3957.62) (-0.000779829 -0.000779829 3957.62) (-0.000779829 -0.000779829 3957.62) (-0.00235015 -0.00235015 2404.28) (-0.00235015 -0.00235015 2404.28) (-0.00235015 -0.00235015 2404.28) (-0.00428622 -0.00428622 2691.68) (-0.00428622 -0.00428622 2691.68) (-0.00193269 -0.00193269 819.447) (-0.00193269 -0.00193269 819.447) (-0.00193269 -0.00193269 819.447)
400           (-0.00454133 -0.00454133 3920.71) (-0.00454133 -0.00454133 3920.71) (-0.00454133 -0.00454133 3920.71) (-0.0129087 -0.0129087 2385.79) (-0.0129087 -0.0129087 2385.79) (-0.0129087 -0.0129087 2385.79) (-0.0173856 -0.0173856 2686.12) (-0.0173856 -0.0173856 2686.12) (-0.00821474 -0.00821474 830.348) (-0.00821474 -0.00821474 830.348) (-0.00821474 -0.00821474 830.348)
450           (-0.00314933 -0.00314933 3895.49) (-0.00314933 -0.00314933 3895.49) (-0.00314933 -0.00314933 3895.49) (-0.00900543 -0.00900543 2373.07) (-0.00900543 -0.00900543 2373.07) (-0.00900543 -0.00900543 2373.07) (-0.012608 -0.012608 2681.95) (-0.012608 -0.012608 2681.95) (-0.00615854 -0.00615854 837.976) (-0.00615854 -0.00615854 837.976) (-0.00615854 -0.00615854 837.976)
500           (-0.00162174 -0.00162174 3878.38) (-0.00162174 -0.00162174 3878.38) (-0.00162174 -0.00162174 3878.38) (-0.00487857 -0.00487857 2364.32) (-0.00487857 -0.00487857 2364.32) (-0.00487857 -0.00487857 2364.32) (-0.00696953 -0.00696953 2678.79) (-0.00696953 -0.00696953 2678.79) (-0.00353074 -0.00353074 843.286) (-0.00353074 -0.00353074 843.286) (-0.00353074 -0.00353074 843.286)
550           (-0.000982432 -0.000982432 3866.52) (-0.000982432 -0.000982432 3866.52) (-0.000982432 -0.000982432 3866.52) (-0.00271723 -0.00271723 2358.27) (-0.00271723 -0.00271723 2358.27) (-0.00271723 -0.00271723 2358.27) (-0.00425289 -0.00425289 2676.65) (-0.00425289 -0.00425289 2676.65) (-0.0021568 -0.0021568 846.964) (-0.0021568 -0.0021568 846.964) (-0.0021568 -0.0021568 846.964)
600           (0.00038378 0.00038378 3858.57) (0.00038378 0.00038378 3858.57) (0.00038378 0.00038378 3858.57) (0.000716677 0.000716676 2354.16) (0.000716677 0.000716676 2354.16) (0.000716677 0.000716676 2354.16) (-0.000268699 -0.000268699 2674.93) (-0.000268699 -0.000268699 2674.93) (-0.000167186 -0.000167186 849.518) (-0.000167186 -0.000167186 849.518) (-0.000167186 -0.000167186 849.518)
650           (0.000357928 0.000357928 3852.92) (0.000357928 0.000357928 3852.92) (0.000357928 0.000357928 3852.92) (0.000662042 0.000662042 2351.27) (0.000662042 0.000662042 2351.27) (0.000662042 0.000662042 2351.27) (-0.00041232 -0.00041232 2673.87) (-0.00041232 -0.00041232 2673.87) (-0.000225471 -0.000225471 851.282) (-0.000225471 -0.000225471 851.282) (-0.000225471 -0.000225471 851.282)
700           (0.000342187 0.000342188 3848.94) (0.000342187 0.000342188 3848.94) (0.000342187 0.000342188 3848.94) (0.000508073 0.000508072 2349.24) (0.000508073 0.000508072 2349.24) (0.000508073 0.000508072 2349.24) (-0.000238429 -0.000238429 2673.22) (-0.000238429 -0.000238429 2673.22) (-0.000181831 -0.000181831 852.499) (-0.000181831 -0.000181831 852.499) (-0.000181831 -0.000181831 852.499)
750           (0.000499851 0.000499851 3846.41) (0.000499851 0.000499851 3846.41) (0.000499851 0.000499851 3846.41) (0.00110782 0.00110782 2347.91) (0.00110782 0.00110782 2347.91) (0.00110782 0.00110782 2347.91) (-0.000169002 -0.000169002 2672.59) (-0.000169002 -0.000169002 2672.59) (-9.78419e-05 -9.78419e-05 853.343) (-9.78419e-05 -9.78419e-05 853.343) (-9.78419e-05 -9.78419e-05 853.343)
800           (0.000515088 0.000515088 3844.54) (0.000515088 0.000515088 3844.54) (0.000515088 0.000515088 3844.54) (0.000938136 0.000938136 2346.96) (0.000938136 0.000938136 2346.96) (0.000938136 0.000938136 2346.96) (0.000340463 0.000340463 2672.26) (0.000340463 0.000340463 2672.26) (0.000249396 0.000249396 853.918) (0.000249396 0.000249396 853.918) (0.000249396 0.000249396 853.918)
850           (0.000259612 0.000259613 3843.41) (0.000259612 0.000259613 3843.41) (0.000259612 0.000259613 3843.41) (0.000396077 0.000396077 2346.34) (0.000396077 0.000396077 2346.34) (0.000396077 0.000396077 2346.34) (-0.000343761 -0.000343761 2671.99) (-0.000343761 -0.000343761 2671.99) (-0.000172091 -0.000172091 854.296) (-0.000172091 -0.000172091 854.296) (-0.000172091 -0.000172091 854.296)
900           (0.000346536 0.000346536 3842.6) (0.000346536 0.000346536 3842.6) (0.000346536 0.000346536 3842.6) (0.000640123 0.000640123 2345.92) (0.000640123 0.000640123 2345.92) (0.000640123 0.000640123 2345.92) (-0.000261723 -0.000261723 2671.77) (-0.000261723 -0.000261723 2671.77) (-0.000128598 -0.000128598 854.57) (-0.000128598 -0.000128598 854.57) (-0.000128598 -0.000128598 854.57)
950           (0.000339472 0.000339472 3842.13) (0.000339472 0.000339472 3842.13) (0.000339472 0.000339472 3842.13) (0.00076441 0.00076441 2345.65) (0.00076441 0.00076441 2345.65) (0.00076441 0.00076441 2345.65) (5.88146e-06 5.88147e-06 2671.59) (5.88146e-06 5.88147e-06 2671.59) (4.60189e-05 4.60189e-05 854.748) (4.60189e-05 4.60189e-05 854.748) (4.60189e-05 4.60189e-05 854.748)
1000          (0.000478687 0.000478687 3841.63) (0.000478687 0.000478687 3841.63) (0.000478687 0.000478687 3841.63) (0.00109059 0.00109059 2345.42) (0.00109059 0.00109059 2345.42) (0.00109059 0.00109059 2345.42) (-6.74652e-05 -6.74652e-05 2671.59) (-6.74652e-05 -6.74652e-05 2671.59) (-4.22538e-05 -4.22538e-05 854.875) (-4.22538e-05 -4.22538e-05 854.875) (-4.22538e-05 -4.22538e-05 854.875)
1050          (0.000501669 0.000501669 3841.41) (0.000501669 0.000501669 3841.41) (0.000501669 0.000501669 3841.41) (0.00118008 0.00118008 2345.29) (0.00118008 0.00118008 2345.29) (0.00118008 0.00118008 2345.29) (0.000135452 0.000135452 2671.5) (0.000135452 0.000135452 2671.5) (7.86729e-05 7.86729e-05 854.959) (7.86729e-05 7.86729e-05 854.959) (7.86729e-05 7.86729e-05 854.959)
1100          (0.000524768 0.000524768 3841.25) (0.000524768 0.000524768 3841.25) (0.000524768 0.000524768 3841.25) (0.00122447 0.00122447 2345.21) (0.00122447 0.00122447 2345.21) (0.00122447 0.00122447 2345.21) (0.000216801 0.000216801 2671.46) (0.000216801 0.000216801 2671.46) (0.000145582 0.000145582 855.014) (0.000145582 0.000145582 855.014) (0.000145582 0.000145582 855.014)
1150          (0.000636346 0.000636347 3840.9) (0.000636346 0.000636347 3840.9) (0.000636346 0.000636347 3840.9) (0.000811154 0.000811155 2345.07) (0.000811154 0.000811155 2345.07) (0.000811154 0.000811155 2345.07) (-0.000656458 -0.000656458 2671.6) (-0.000656458 -0.000656458 2671.6) (-0.000466036 -0.000466036 855.057) (-0.000466036 -0.000466036 855.057) (-0.000466036 -0.000466036 855.057)
1200          (0.000429109 0.000429109 3840.86) (0.000429109 0.000429109 3840.86) (0.000429109 0.000429109 3840.86) (0.000781957 0.000781957 2345.04) (0.000781957 0.000781957 2345.04) (0.000781957 0.000781957 2345.04) (-6.19189e-06 -6.19189e-06 2671.55) (-6.19189e-06 -6.19189e-06 2671.55) (-3.13538e-05 -3.13538e-05 855.084) (-3.13538e-05 -3.13538e-05 855.084) (-3.13538e-05 -3.13538e-05 855.084)
1250          (0.000393762 0.000393762 3840.84) (0.000393762 0.000393762 3840.84) (0.000393762 0.000393762 3840.84) (0.000743851 0.000743851 2345.03) (0.000743851 0.000743851 2345.03) (0.000743851 0.000743851 2345.03) (-3.48051e-05 -3.48051e-05 2671.52) (-3.48051e-05 -3.48051e-05 2671.52) (-1.89549e-05 -1.8955e-05 855.097) (-1.89549e-05 -1.8955e-05 855.097) (-1.89549e-05 -1.8955e-05 855.097)
1300          (0.00035923 0.000359231 3840.82) (0.00035923 0.000359231 3840.82) (0.00035923 0.000359231 3840.82) (0.000637406 0.000637406 2345.02) (0.000637406 0.000637406 2345.02) (0.000637406 0.000637406 2345.02) (-0.000150549 -0.000150549 2671.5) (-0.000150549 -0.000150549 2671.5) (-0.000123323 -0.000123323 855.109) (-0.000123323 -0.000123323 855.109) (-0.000123323 -0.000123323 855.109)
1350          (0.000401413 0.000401413 3840.79) (0.000401413 0.000401413 3840.79) (0.000401413 0.000401413 3840.79) (0.000779128 0.000779128 2345) (0.000779128 0.000779128 2345) (0.000779128 0.000779128 2345) (4.66348e-05 4.66348e-05 2671.49) (4.66348e-05 4.66348e-05 2671.49) (4.41091e-05 4.41091e-05 855.122) (4.41091e-05 4.41091e-05 855.122) (4.41091e-05 4.41091e-05 855.122)
1400          (0.000401413 0.000401413 3840.79) (0.000401413 0.000401413 3840.79) (0.000401413 0.000401413 3840.79) (0.000779128 0.000779128 2345) (0.000779128 0.000779128 2345) (0.000779128 0.000779128 2345) (4.66348e-05 4.66348e-05 2671.49) (4.66348e-05 4.66348e-05 2671.49) (4.41091e-05 4.41091e-05 855.122) (4.41091e-05 4.41091e-05 855.122) (4.41091e-05 4.41091e-05 855.122)
1450          (0.000401413 0.000401413 3840.79) (0.000401413 0.000401413 3840.79) (0.000401413 0.000401413 3840.79) (0.000779128 0.000779128 2345) (0.000779128 0.000779128 2345) (0.000779128 0.000779128 2345) (4.66348e-05 4.66348e-05 2671.49) (4.66348e-05 4.66348e-05 2671.49) (4.41091e-05 4.41091e-05 855.122) (4.41091e-05 4.41091e-05 855.122) (4.41091e-05 4.41091e-05 855.122)
1500          (0.000401413 0.000401413 3840.79) (0.000401413 0.000401413 3840.79) (0.000401413 0.000401413 3840.79) (0.000779128 0.000779128 2345) (0.000779128 0.000779128 2345) (0.000779128 0.000779128 2345) (4.66348e-05 4.66348e-05 2671.49) (4.66348e-05 4.66348e-05 2671.49) (4.41091e-05 4.41091e-05 855.122) (4.41091e-05 4.41091e-05 855.122) (4.41091e-05 4.41091e-05 855.122)
1550          (0.000401413 0.000401413 3840.79) (0.000401413 0.000401413 3840.79) (0.000401413 0.000401413 3840.79) (0.000779128 0.000779128 2345) (0.000779128 0.000779128 2345) (0.000779128 0.000779128 2345) (4.66348e-05 4.66348e-05 2671.49) (4.66348e-05 4.66348e-05 2671.49) (4.41091e-05 4.41091e-05 855.122) (4.41091e-05 4.41091e-05 855.122) (4.41091e-05 4.41091e-05 855.122)
1600          (0.000401413 0.000401413 3840.79) (0.000401413 0.000401413 3840.79) (0.000401413 0.000401413 3840.79) (0.000779128 0.000779128 2345) (0.000779128 0.000779128 2345) (0.000779128 0.000779128 2345) (4.66348e-05 4.66348e-05 2671.49) (4.66348e-05 4.66348e-05 2671.49) (4.41091e-05 4.41091e-05 855.122) (4.41091e-05 4.41091e-05 855.122) (4.41091e-05 4.41091e-05 855.122)
1650          (0.000401413 0.000401413 3840.79) (0.000401413 0.000401413 3840.79) (0.000401413 0.000401413 3840.79) (0.000779128 0.000779128 2345) (0.000779128 0.000779128 2345) (0.000779128 0.000779128 2345) (4.66348e-05 4.66348e-05 2671.49) (4.66348e-05 4.66348e-05 2671.49) (4.41091e-05 4.41091e-05 855.122) (4.41091e-05 4.41091e-05 855.122) (4.41091e-05 4.41091e-05 855.122)
1700          (0.000401413 0.000401413 3840.79) (0.000401413 0.000401413 3840.79) (0.000401413 0.000401413 3840.79) (0.000779128 0.000779128 2345) (0.000779128 0.000779128 2345) (0.000779128 0.000779128 2345) (4.66348e-05 4.66348e-05 2671.49) (4.66348e-05 4.66348e-05 2671.49) (4.41091e-05 4.41091e-05 855.122) (4.41091e-05 4.41091e-05 855.122) (4.41091e-05 4.41091e-05 855.122)
1750          (0.000401413 0.000401413 3840.79) (0.000401413 0.000401413 3840.79) (0.000401413 0.000401413 3840.79) (0.000779128 0.000779128 2345) (0.000779128 0.000779128 2345) (0.000779128 0.000779128 2345) (4.66348e-05 4.66348e-05 2671.49) (4.66348e-05 4.66348e-05 2671.49) (4.41091e-05 4.41091e-05 855.122) (4.41091e-05 4.41091e-05 855.122) (4.41091e-05 4.41091e-05 855.122)
1800          (0.000401413 0.000401413 3840.79) (0.000401413 0.000401413 3840.79) (0.000401413 0.000401413 3840.79) (0.000779128 0.000779128 2345) (0.000779128 0.000779128 2345) (0.000779128 0.000779128 2345) (4.66348e-05 4.66348e-05 2671.49) (4.66348e-05 4.66348e-05 2671.49) (4.41091e-05 4.41091e-05 855.122) (4.41091e-05 4.41091e-05 855.122) (4.41091e-05 4.41091e-05 855.122)
1850          (0.000401413 0.000401413 3840.79) (0.000401413 0.000401413 3840.79) (0.000401413 0.000401413 3840.79) (0.000779128 0.000779128 2345) (0.000779128 0.000779128 2345) (0.000779128 0.000779128 2345) (4.66348e-05 4.66348e-05 2671.49) (4.66348e-05 4.66348e-05 2671.49) (4.41091e-05 4.41091e-05 855.122) (4.41091e-05 4.41091e-05 855.122) (4.41091e-05 4.41091e-05 855.122)
1900          (0.000401413 0.000401413 3840.79) (0.000401413 0.000401413 3840.79) (0.000401413 0.000401413 3840.79) (0.000779128 0.000779128 2345) (0.000779128 0.000779128 2345) (0.000779128 0.000779128 2345) (4.66348e-05 4.66348e-05 2671.49) (4.66348e-05 4.66348e-05 2671.49) (4.41091e-05 4.41091e-05 855.122) (4.41091e-05 4.41091e-05 855.122) (4.41091e-05 4.41091e-05 855.122)
1950          (0.000401413 0.000401413 3840.79) (0.000401413 0.000401413 3840.79) (0.000401413 0.000401413 3840.79) (0.000779128 0.000779128 2345) (0.000779128 0.000779128 2345) (0.000779128 0.000779128 2345) (4.66348e-05 4.66348e-05 2671.49) (4.66348e-05 4.66348e-05 2671.49) (4.41091e-05 4.41091e-05 855.122) (4.41091e-05 4.41091e-05 855.122) (4.41091e-05 4.41091e-05 855.122)
2000          (0.000401413 0.000401413 3840.79) (0.000401413 0.000401413 3840.79) (0.000401413 0.000401413 3840.79) (0.000779128 0.000779128 2345) (0.000779128 0.000779128 2345) (0.000779128 0.000779128 2345) (4.66348e-05 4.66348e-05 2671.49) (4.66348e-05 4.66348e-05 2671.49) (4.41091e-05 4.41091e-05 855.122) (4.41091e-05 4.41091e-05 855.122) (4.41091e-05 4.41091e-05 855.122)
2050          (0.000401413 0.000401413 3840.79) (0.000401413 0.000401413 3840.79) (0.000401413 0.000401413 3840.79) (0.000779128 0.000779128 2345) (0.000779128 0.000779128 2345) (0.000779128 0.000779128 2345) (4.66348e-05 4.66348e-05 2671.49) (4.66348e-05 4.66348e-05 2671.49) (4.41091e-05 4.41091e-05 855.122) (4.41091e-05 4.41091e-05 855.122) (4.41091e-05 4.41091e-05 855.122)
2100          (0.000401413 0.000401413 3840.79) (0.000401413 0.000401413 3840.79) (0.000401413 0.000401413 3840.79) (0.000779128 0.000779128 2345) (0.000779128 0.000779128 2345) (0.000779128 0.000779128 2345) (4.66348e-05 4.66348e-05 2671.49) (4.66348e-05 4.66348e-05 2671.49) (4.41091e-05 4.41091e-05 855.122) (4.41091e-05 4.41091e-05 855.122) (4.41091e-05 4.41091e-05 855.122)
2150          (0.000401413 0.000401413 3840.79) (0.000401413 0.000401413 3840.79) (0.000401413 0.000401413 3840.79) (0.000779128 0.000779128 2345) (0.000779128 0.000779128 2345) (0.000779128 0.000779128 2345) (4.66348e-05 4.66348e-05 2671.49) (4.66348e-05 4.66348e-05 2671.49) (4.41091e-05 4.41091e-05 855.122) (4.41091e-05 4.41091e-05 855.122) (4.41091e-05 4.41091e-05 855.122)
2200          (0.000401413 0.000401413 3840.79) (0.000401413 0.000401413 3840.79) (0.000401413 0.000401413 3840.79) (0.000779128 0.000779128 2345) (0.000779128 0.000779128 2345) (0.000779128 0.000779128 2345) (4.66348e-05 4.66348e-05 2671.49) (4.66348e-05 4.66348e-05 2671.49) (4.41091e-05 4.41091e-05 855.122) (4.41091e-05 4.41091e-05 855.122) (4.41091e-05 4.41091e-05 855.122)
2250          (0.000401413 0.000401413 3840.79) (0.000401413 0.000401413 3840.79) (0.000401413 0.000401413 3840.79) (0.000779128 0.000779128 2345) (0.000779128 0.000779128 2345) (0.000779128 0.000779128 2345) (4.66348e-05 4.66348e-05 2671.49) (4.66348e-05 4.66348e-05 2671.49) (4.41091e-05 4.41091e-05 855.122) (4.41091e-05 4.41091e-05 855.122) (4.41091e-05 4.41091e-05 855.122)
2300          (0.000401413 0.000401413 3840.79) (0.000401413 0.000401413 3840.79) (0.000401413 0.000401413 3840.79) (0.000779128 0.000779128 2345) (0.000779128 0.000779128 2345) (0.000779128 0.000779128 2345) (4.66348e-05 4.66348e-05 2671.49) (4.66348e-05 4.66348e-05 2671.49) (4.41091e-05 4.41091e-05 855.122) (4.41091e-05 4.41091e-05 855.122) (4.41091e-05 4.41091e-05 855.122)
2350          (0.000401413 0.000401413 3840.79) (0.000401413 0.000401413 3840.79) (0.000401413 0.000401413 3840.79) (0.000779128 0.000779128 2345) (0.000779128 0.000779128 2345) (0.000779128 0.000779128 2345) (4.66348e-05 4.66348e-05 2671.49) (4.66348e-05 4.66348e-05 2671.49) (4.41091e-05 4.41091e-05 855.122) (4.41091e-05 4.41091e-05 855.122) (4.41091e-05 4.41091e-05 855.122)
2400          (0.000401413 0.000401413 3840.79) (0.000401413 0.000401413 3840.79) (0.000401413 0.000401413 3840.79) (0.000779128 0.000779128 2345) (0.000779128 0.000779128 2345) (0.000779128 0.000779128 2345) (4.66348e-05 4.66348e-05 2671.49) (4.66348e-05 4.66348e-05 2671.49) (4.41091e-05 4.41091e-05 855.122) (4.41091e-05 4.41091e-05 855.122) (4.41091e-05 4.41091e-05 855.122)
2450          (0.000401413 0.000401413 3840.79) (0.000401413 0.000401413 3840.79) (0.000401413 0.000401413 3840.79) (0.000779128 0.000779128 2345) (0.000779128 0.000779128 2345) (0.000779128 0.000779128 2345) (4.66348e-05 4.66348e-05 2671.49) (4.66348e-05 4.66348e-05 2671.49) (4.41091e-05 4.41091e-05 855.122) (4.41091e-05 4.41091e-05 855.122) (4.41091e-05 4.41091e-05 855.122)
2500          (0.000401413 0.000401413 3840.79) (0.000401413 0.000401413 3840.79) (0.000401413 0.000401413 3840.79) (0.000779128 0.000779128 2345) (0.000779128 0.000779128 2345) (0.000779128 0.000779128 2345) (4.66348e-05 4.66348e-05 2671.49) (4.66348e-05 4.66348e-05 2671.49) (4.41091e-05 4.41091e-05 855.122) (4.41091e-05 4.41091e-05 855.122) (4.41091e-05 4.41091e-05 855.122)
2550          (0.000401413 0.000401413 3840.79) (0.000401413 0.000401413 3840.79) (0.000401413 0.000401413 3840.79) (0.000779128 0.000779128 2345) (0.000779128 0.000779128 2345) (0.000779128 0.000779128 2345) (4.66348e-05 4.66348e-05 2671.49) (4.66348e-05 4.66348e-05 2671.49) (4.41091e-05 4.41091e-05 855.122) (4.41091e-05 4.41091e-05 855.122) (4.41091e-05 4.41091e-05 855.122)
2600          (0.000401413 0.000401413 3840.79) (0.000401413 0.000401413 3840.79) (0.000401413 0.000401413 3840.79) (0.000779128 0.000779128 2345) (0.000779128 0.000779128 2345) (0.000779128 0.000779128 2345) (4.66348e-05 4.66348e-05 2671.49) (4.66348e-05 4.66348e-05 2671.49) (4.41091e-05 4.41091e-05 855.122) (4.41091e-05 4.41091e-05 855.122) (4.41091e-05 4.41091e-05 855.122)
2650          (0.000401413 0.000401413 3840.79) (0.000401413 0.000401413 3840.79) (0.000401413 0.000401413 3840.79) (0.000779128 0.000779128 2345) (0.000779128 0.000779128 2345) (0.000779128 0.000779128 2345) (4.66348e-05 4.66348e-05 2671.49) (4.66348e-05 4.66348e-05 2671.49) (4.41091e-05 4.41091e-05 855.122) (4.41091e-05 4.41091e-05 855.122) (4.41091e-05 4.41091e-05 855.122)
2700          (0.000401413 0.000401413 3840.79) (0.000401413 0.000401413 3840.79) (0.000401413 0.000401413 3840.79) (0.000779128 0.000779128 2345) (0.000779128 0.000779128 2345) (0.000779128 0.000779128 2345) (4.66348e-05 4.66348e-05 2671.49) (4.66348e-05 4.66348e-05 2671.49) (4.41091e-05 4.41091e-05 855.122) (4.41091e-05 4.41091e-05 855.122) (4.41091e-05 4.41091e-05 855.122)
2750          (0.000401413 0.000401413 3840.79) (0.000401413 0.000401413 3840.79) (0.000401413 0.000401413 3840.79) (0.000779128 0.000779128 2345) (0.000779128 0.000779128 2345) (0.000779128 0.000779128 2345) (4.66348e-05 4.66348e-05 2671.49) (4.66348e-05 4.66348e-05 2671.49) (4.41091e-05 4.41091e-05 855.122) (4.41091e-05 4.41091e-05 855.122) (4.41091e-05 4.41091e-05 855.122)
2800          (0.000401413 0.000401413 3840.79) (0.000401413 0.000401413 3840.79) (0.000401413 0.000401413 3840.79) (0.000779128 0.000779128 2345) (0.000779128 0.000779128 2345) (0.000779128 0.000779128 2345) (4.66348e-05 4.66348e-05 2671.49) (4.66348e-05 4.66348e-05 2671.49) (4.41091e-05 4.41091e-05 855.122) (4.41091e-05 4.41091e-05 855.122) (4.41091e-05 4.41091e-05 855.122)
2850          (0.000401413 0.000401413 3840.79) (0.000401413 0.000401413 3840.79) (0.000401413 0.000401413 3840.79) (0.000779128 0.000779128 2345) (0.000779128 0.000779128 2345) (0.000779128 0.000779128 2345) (4.66348e-05 4.66348e-05 2671.49) (4.66348e-05 4.66348e-05 2671.49) (4.41091e-05 4.41091e-05 855.122) (4.41091e-05 4.41091e-05 855.122) (4.41091e-05 4.41091e-05 855.122)
2900          (0.000401413 0.000401413 3840.79) (0.000401413 0.000401413 3840.79) (0.000401413 0.000401413 3840.79) (0.000779128 0.000779128 2345) (0.000779128 0.000779128 2345) (0.000779128 0.000779128 2345) (4.66348e-05 4.66348e-05 2671.49) (4.66348e-05 4.66348e-05 2671.49) (4.41091e-05 4.41091e-05 855.122) (4.41091e-05 4.41091e-05 855.122) (4.41091e-05 4.41091e-05 855.122)
2950          (0.000401413 0.000401413 3840.79) (0.000401413 0.000401413 3840.79) (0.000401413 0.000401413 3840.79) (0.000779128 0.000779128 2345) (0.000779128 0.000779128 2345) (0.000779128 0.000779128 2345) (4.66348e-05 4.66348e-05 2671.49) (4.66348e-05 4.66348e-05 2671.49) (4.41091e-05 4.41091e-05 855.122) (4.41091e-05 4.41091e-05 855.122) (4.41091e-05 4.41091e-05 855.122)
3000          (0.000401413 0.000401413 3840.79) (0.000401413 0.000401413 3840.79) (0.000401413 0.000401413 3840.79) (0.000779128 0.000779128 2345) (0.000779128 0.000779128 2345) (0.000779128 0.000779128 2345) (4.66348e-05 4.66348e-05 2671.49) (4.66348e-05 4.66348e-05 2671.49) (4.41091e-05 4.41091e-05 855.122) (4.41091e-05 4.41091e-05 855.122) (4.41091e-05 4.41091e-05 855.122)
3050          (0.000401413 0.000401413 3840.79) (0.000401413 0.000401413 3840.79) (0.000401413 0.000401413 3840.79) (0.000779128 0.000779128 2345) (0.000779128 0.000779128 2345) (0.000779128 0.000779128 2345) (4.66348e-05 4.66348e-05 2671.49) (4.66348e-05 4.66348e-05 2671.49) (4.41091e-05 4.41091e-05 855.122) (4.41091e-05 4.41091e-05 855.122) (4.41091e-05 4.41091e-05 855.122)
3100          (0.000401413 0.000401413 3840.79) (0.000401413 0.000401413 3840.79) (0.000401413 0.000401413 3840.79) (0.000779128 0.000779128 2345) (0.000779128 0.000779128 2345) (0.000779128 0.000779128 2345) (4.66348e-05 4.66348e-05 2671.49) (4.66348e-05 4.66348e-05 2671.49) (4.41091e-05 4.41091e-05 855.122) (4.41091e-05 4.41091e-05 855.122) (4.41091e-05 4.41091e-05 855.122)
3150          (0.000401413 0.000401413 3840.79) (0.000401413 0.000401413 3840.79) (0.000401413 0.000401413 3840.79) (0.000779128 0.000779128 2345) (0.000779128 0.000779128 2345) (0.000779128 0.000779128 2345) (4.66348e-05 4.66348e-05 2671.49) (4.66348e-05 4.66348e-05 2671.49) (4.41091e-05 4.41091e-05 855.122) (4.41091e-05 4.41091e-05 855.122) (4.41091e-05 4.41091e-05 855.122)
3200          (0.000401413 0.000401413 3840.79) (0.000401413 0.000401413 3840.79) (0.000401413 0.000401413 3840.79) (0.000779128 0.000779128 2345) (0.000779128 0.000779128 2345) (0.000779128 0.000779128 2345) (4.66348e-05 4.66348e-05 2671.49) (4.66348e-05 4.66348e-05 2671.49) (4.41091e-05 4.41091e-05 855.122) (4.41091e-05 4.41091e-05 855.122) (4.41091e-05 4.41091e-05 855.122)
3250          (0.000401413 0.000401413 3840.79) (0.000401413 0.000401413 3840.79) (0.000401413 0.000401413 3840.79) (0.000779128 0.000779128 2345) (0.000779128 0.000779128 2345) (0.000779128 0.000779128 2345) (4.66348e-05 4.66348e-05 2671.49) (4.66348e-05 4.66348e-05 2671.49) (4.41091e-05 4.41091e-05 855.122) (4.41091e-05 4.41091e-05 855.122) (4.41091e-05 4.41091e-05 855.122)
3300          (0.000401413 0.000401413 3840.79) (0.000401413 0.000401413 3840.79) (0.000401413 0.000401413 3840.79) (0.000779128 0.000779128 2345) (0.000779128 0.000779128 2345) (0.000779128 0.000779128 2345) (4.66348e-05 4.66348e-05 2671.49) (4.66348e-05 4.66348e-05 2671.49) (4.41091e-05 4.41091e-05 855.122) (4.41091e-05 4.41091e-05 855.122) (4.41091e-05 4.41091e-05 855.122)
3350          (0.000401413 0.000401413 3840.79) (0.000401413 0.000401413 3840.79) (0.000401413 0.000401413 3840.79) (0.000779128 0.000779128 2345) (0.000779128 0.000779128 2345) (0.000779128 0.000779128 2345) (4.66348e-05 4.66348e-05 2671.49) (4.66348e-05 4.66348e-05 2671.49) (4.41091e-05 4.41091e-05 855.122) (4.41091e-05 4.41091e-05 855.122) (4.41091e-05 4.41091e-05 855.122)
3400          (0.000401413 0.000401413 3840.79) (0.000401413 0.000401413 3840.79) (0.000401413 0.000401413 3840.79) (0.000779128 0.000779128 2345) (0.000779128 0.000779128 2345) (0.000779128 0.000779128 2345) (4.66348e-05 4.66348e-05 2671.49) (4.66348e-05 4.66348e-05 2671.49) (4.41091e-05 4.41091e-05 855.122) (4.41091e-05 4.41091e-05 855.122) (4.41091e-05 4.41091e-05 855.122)
3450          (0.000401413 0.000401413 3840.79) (0.000401413 0.000401413 3840.79) (0.000401413 0.000401413 3840.79) (0.000779128 0.000779128 2345) (0.000779128 0.000779128 2345) (0.000779128 0.000779128 2345) (4.66348e-05 4.66348e-05 2671.49) (4.66348e-05 4.66348e-05 2671.49) (4.41091e-05 4.41091e-05 855.122) (4.41091e-05 4.41091e-05 855.122) (4.41091e-05 4.41091e-05 855.122)
3500          (0.000401413 0.000401413 3840.79) (0.000401413 0.000401413 3840.79) (0.000401413 0.000401413 3840.79) (0.000779128 0.000779128 2345) (0.000779128 0.000779128 2345) (0.000779128 0.000779128 2345) (4.66348e-05 4.66348e-05 2671.49) (4.66348e-05 4.66348e-05 2671.49) (4.41091e-05 4.41091e-05 855.122) (4.41091e-05 4.41091e-05 855.122) (4.41091e-05 4.41091e-05 855.122)
3550          (0.000401413 0.000401413 3840.79) (0.000401413 0.000401413 3840.79) (0.000401413 0.000401413 3840.79) (0.000779128 0.000779128 2345) (0.000779128 0.000779128 2345) (0.000779128 0.000779128 2345) (4.66348e-05 4.66348e-05 2671.49) (4.66348e-05 4.66348e-05 2671.49) (4.41091e-05 4.41091e-05 855.122) (4.41091e-05 4.41091e-05 855.122) (4.41091e-05 4.41091e-05 855.122)
3600          (0.000401413 0.000401413 3840.79) (0.000401413 0.000401413 3840.79) (0.000401413 0.000401413 3840.79) (0.000779128 0.000779128 2345) (0.000779128 0.000779128 2345) (0.000779128 0.000779128 2345) (4.66348e-05 4.66348e-05 2671.49) (4.66348e-05 4.66348e-05 2671.49) (4.41091e-05 4.41091e-05 855.122) (4.41091e-05 4.41091e-05 855.122) (4.41091e-05 4.41091e-05 855.122)
3650          (0.000401413 0.000401413 3840.79) (0.000401413 0.000401413 3840.79) (0.000401413 0.000401413 3840.79) (0.000779128 0.000779128 2345) (0.000779128 0.000779128 2345) (0.000779128 0.000779128 2345) (4.66348e-05 4.66348e-05 2671.49) (4.66348e-05 4.66348e-05 2671.49) (4.41091e-05 4.41091e-05 855.122) (4.41091e-05 4.41091e-05 855.122) (4.41091e-05 4.41091e-05 855.122)
3700          (0.000401413 0.000401413 3840.79) (0.000401413 0.000401413 3840.79) (0.000401413 0.000401413 3840.79) (0.000779128 0.000779128 2345) (0.000779128 0.000779128 2345) (0.000779128 0.000779128 2345) (4.66348e-05 4.66348e-05 2671.49) (4.66348e-05 4.66348e-05 2671.49) (4.41091e-05 4.41091e-05 855.122) (4.41091e-05 4.41091e-05 855.122) (4.41091e-05 4.41091e-05 855.122)
3750          (0.000401413 0.000401413 3840.79) (0.000401413 0.000401413 3840.79) (0.000401413 0.000401413 3840.79) (0.000779128 0.000779128 2345) (0.000779128 0.000779128 2345) (0.000779128 0.000779128 2345) (4.66348e-05 4.66348e-05 2671.49) (4.66348e-05 4.66348e-05 2671.49) (4.41091e-05 4.41091e-05 855.122) (4.41091e-05 4.41091e-05 855.122) (4.41091e-05 4.41091e-05 855.122)
3800          (0.000401413 0.000401413 3840.79) (0.000401413 0.000401413 3840.79) (0.000401413 0.000401413 3840.79) (0.000779128 0.000779128 2345) (0.000779128 0.000779128 2345) (0.000779128 0.000779128 2345) (4.66348e-05 4.66348e-05 2671.49) (4.66348e-05 4.66348e-05 2671.49) (4.41091e-05 4.41091e-05 855.122) (4.41091e-05 4.41091e-05 855.122) (4.41091e-05 4.41091e-05 855.122)
3850          (0.000401413 0.000401413 3840.79) (0.000401413 0.000401413 3840.79) (0.000401413 0.000401413 3840.79) (0.000779128 0.000779128 2345) (0.000779128 0.000779128 2345) (0.000779128 0.000779128 2345) (4.66348e-05 4.66348e-05 2671.49) (4.66348e-05 4.66348e-05 2671.49) (4.41091e-05 4.41091e-05 855.122) (4.41091e-05 4.41091e-05 855.122) (4.41091e-05 4.41091e-05 855.122)