# Probe 0 (0.0015 0.0015 0)
# Probe 1 (0.0015 0.0015 0.01)
# Probe 2 (0.0015 0.0015 0.02)
# Probe 3 (0.0015 0.0015 0.03)
# Probe 4 (0.0015 0.0015 0.04)
# Probe 5 (0.0015 0.0015 0.05)
# Probe 6 (0.0015 0.0015 0.06)
# Probe 7 (0.0015 0.0015 0.07)
# Probe 8 (0.0015 0.0015 0.08)
# Probe 9 (0.0015 0.0015 0.09)
# Probe 10 (0.0015 0.0015 0.1)
# Time        0             1             2             3             4             5             6             7             8             9             10           
50            (-3.5668e-15 5.30911e-11 -3.06078e-10) (-3.5668e-15 5.30911e-11 -3.06078e-10) (-3.5668e-15 5.30911e-11 -3.06078e-10) (3.72003e-12 -8.20926e-12 -1.53694e-09) (3.72003e-12 -8.20926e-12 -1.53694e-09) (3.72003e-12 -8.20926e-12 -1.53694e-09) (9.12655e-12 -5.36686e-14 -1.1332e-09) (9.12655e-12 -5.36686e-14 -1.1332e-09) (1.3663e-14 6.48123e-14 -1.82443e-09) (1.3663e-14 6.48123e-14 -1.82443e-09) (1.3663e-14 6.48123e-14 -1.82443e-09)
100           (-3.18596e-12 3.82098e-12 -7.7843e-10) (-3.18596e-12 3.82098e-12 -7.7843e-10) (-3.18596e-12 3.82098e-12 -7.7843e-10) (5.94939e-12 -6.16097e-11 -2.54802e-09) (5.94939e-12 -6.16097e-11 -2.54802e-09) (5.94939e-12 -6.16097e-11 -2.54802e-09) (-9.04966e-12 7.92947e-12 -1.27903e-09) (-9.04966e-12 7.92947e-12 -1.27903e-09) (1.81683e-11 8.48078e-13 -2.02706e-09) (1.81683e-11 8.48078e-13 -2.02706e-09) (1.81683e-11 8.48078e-13 -2.02706e-09)
150           (2.27627e-12 -6.052e-11 -6.92333e-10) (2.27627e-12 -6.052e-11 -6.92333e-10) (2.27627e-12 -6.052e-11 -6.92333e-10) (4.50315e-12 4.93066e-11 -1.67048e-09) (4.50315e-12 4.93066e-11 -1.67048e-09) (4.50315e-12 4.93066e-11 -1.67048e-09) (-8.44377e-12 9.26313e-12 -6.26692e-10) (-8.44377e-12 9.26313e-12 -6.26692e-10) (1.7299e-11 8.2852e-12 -1.28433e-09) (1.7299e-11 8.2852e-12 -1.28433e-09) (1.7299e-11 8.2852e-12 -1.28433e-09)
200           (1.99797e-12 6.08047e-11 -7.14389e-10) (1.99797e-12 6.08047e-11 -7.14389e-10) (1.99797e-12 6.08047e-11 -7.14389e-10) (4.91893e-12 -5.8544e-11 -4.01642e-09) (4.91893e-12 -5.8544e-11 -4.01642e-09) (4.91893e-12 -5.8544e-11 -4.01642e-09) (-1.00054e-11 2.01241e-11 -2.90453e-09) (-1.00054e-11 2.01241e-11 -2.90453e-09) (9.12372e-12 -8.1721e-12 -4.81729e-09) (9.12372e-12 -8.1721e-12 -4.81729e-09) (9.12372e-12 -8.1721e-12 -4.81729e-09)
250           (-5.65562e-11 5.84421e-11 1.13155e-11) (-5.65562e-11 5.84421e-11 1.13155e-11) (-5.65562e-11 5.84421e-11 1.13155e-11) (4.96595e-11 1.0168e-12 -2.8181e-09) (4.96595e-11 1.0168e-12 -2.8181e-09) (4.96595e-11 1.0168e-12 -2.8181e-09) (-5.23286e-14 -9.18057e-12 -2.32249e-09) (-5.23286e-14 -9.18057e-12 -2.32249e-09) (-1.89808e-11 9.46625e-13 -3.79586e-09) (-1.89808e-11 9.46625e-13 -3.79586e-09) (-1.89808e-11 9.46625e-13 -3.79586e-09)
300           (4.61841e-11 6.58309e-12 2.06822e-10) (4.61841e-11 6.58309e-12 2.06822e-10) (4.61841e-11 6.58309e-12 2.06822e-10) (-1.60014e-12 -8.05217e-12 3.31548e-10) (-1.60014e-12 -8.05217e-12 3.31548e-10) (-1.60014e-12 -8.05217e-12 3.31548e-10) (1.08263e-11 3.51322e-14 7.99158e-11) (1.08263e-11 3.51322e-14 7.99158e-11) (-1.81945e-11 8.07012e-12 6.12384e-11) (-1.81945e-11 8.07012e-12 6.12384e-11) (-1.81945e-11 8.07012e-12 6.12384e-11)
350           (-5.82426e-11 -6.85247e-12 -4.04291e-10) (-5.82426e-11 -6.85247e-12 -4.04291e-10) (-5.82426e-11 -6.85247e-12 -4.04291e-10) (3.96601e-13 -6.22194e-11 2.13914e-10) (3.96601e-13 -6.22194e-11 2.13914e-10) (3.96601e-13 -6.22194e-11 2.13914e-10) (9.2487e-14 9.97216e-12 4.48789e-10) (9.2487e-14 9.97216e-12 4.48789e-10) (8.35218e-13 1.65377e-13 8.81988e-10) (8.35218e-13 1.65377e-13 8.81988e-10) (8.35218e-13 1.65377e-13 8.81988e-10)
400           (4.80727e-12 6.22657e-12 -2.78871e-10) (4.80727e-12 6.22657e-12 -2.78871e-10) (4.80727e-12 6.22657e-12 -2.78871e-10) (-4.11639e-12 -5.61159e-11 -2.26794e-09) (-4.11639e-12 -5.61159e-11 -2.26794e-09) (-4.11639e-12 -5.61159e-11 -2.26794e-09) (-1.80501e-11 -1.08843e-11 -1.66051e-09) (-1.80501e-11 -1.08843e-11 -1.66051e-09) (-4.7989e-14 -9.32765e-14 -2.78977e-09) (-4.7989e-14 -9.32765e-14 -2.78977e-09) (-4.7989e-14 -9.32765e-14 -2.78977e-09)
450           (5.45789e-11 6.05568e-12 -6.50949e-10) (5.45789e-11 6.05568e-12 -6.50949e-10) (5.45789e-11 6.05568e-12 -6.50949e-10) (6.01835e-12 5.67809e-12 -1.44282e-09) (6.01835e-12 5.67809e-12 -1.44282e-09) (6.01835e-12 5.67809e-12 -1.44282e-09) (9.91835e-12 4.52703e-14 -7.34398e-10) (9.91835e-12 4.52703e-14 -7.34398e-10) (7.39521e-12 1.01128e-11 -1.20548e-09) (7.39521e-12 1.01128e-11 -1.20548e-09) (7.39521e-12 1.01128e-11 -1.20548e-09)
500           (-1.61943e-12 5.58507e-11 1.38933e-10) (-1.61943e-12 5.58507e-11 1.38933e-10) (-1.61943e-12 5.58507e-11 1.38933e-10) (-1.1677e-12 -1.66206e-12 2.25375e-11) (-1.1677e-12 -1.66206e-12 2.25375e-11) (-1.1677e-12 -1.66206e-12 2.25375e-11) (-1.07842e-11 -6.33595e-14 9.55844e-11) (-1.07842e-11 -6.33595e-14 9.55844e-11) (-3.79042e-14 1.0096e-12 3.16718e-10) (-3.79042e-14 1.0096e-12 3.16718e-10) (-3.79042e-14 1.0096e-12 3.16718e-10)
550           (5.55465e-11 -3.02168e-12 1.36525e-10) (5.55465e-11 -3.02168e-12 1.36525e-10) (5.55465e-11 -3.02168e-12 1.36525e-10) (-3.59243e-12 -1.2497e-11 1.98028e-10) (-3.59243e-12 -1.2497e-11 1.98028e-10) (-3.59243e-12 -1.2497e-11 1.98028e-10) (9.90974e-12 -9.04453e-12 4.48575e-11) (9.90974e-12 -9.04453e-12 4.48575e-11) (-9.17906e-12 7.51915e-14 -8.65132e-11) (-9.17906e-12 7.51915e-14 -8.65132e-11) (-9.17906e-12 7.51915e-14 -8.65132e-11)
600           (1.2035e-10 -6.85679e-12 -4.25906e-10) (1.2035e-10 -6.85679e-12 -4.25906e-10) (1.2035e-10 -6.85679e-12 -4.25906e-10) (-8.75622e-13 -1.14523e-10 -3.2259e-09) (-8.75622e-13 -1.14523e-10 -3.2259e-09) (-8.75622e-13 -1.14523e-10 -3.2259e-09) (-7.71498e-14 -9.33832e-13 -2.12751e-09) (-7.71498e-14 -9.33832e-13 -2.12751e-09) (1.0213e-11 9.13947e-12 -3.4923e-09) (1.0213e-11 9.13947e-12 -3.4923e-09) (1.0213e-11 9.13947e-12 -3.4923e-09)
650           (-1.14994e-10 5.32961e-11 -1.41364e-11) (-1.14994e-10 5.32961e-11 -1.41364e-11) (-1.14994e-10 5.32961e-11 -1.41364e-11) (-8.15638e-14 4.85019e-13 -1.79835e-09) (-8.15638e-14 4.85019e-13 -1.79835e-09) (-8.15638e-14 4.85019e-13 -1.79835e-09) (-7.19874e-12 -1.01174e-11 -1.54002e-09) (-7.19874e-12 -1.01174e-11 -1.54002e-09) (-1.01911e-12 -1.83613e-11 -2.60747e-09) (-1.01911e-12 -1.83613e-11 -2.60747e-09) (-1.01911e-12 -1.83613e-11 -2.60747e-09)
700           (4.72683e-12 -4.38071e-14 6.82979e-10) (4.72683e-12 -4.38071e-14 6.82979e-10) (4.72683e-12 -4.38071e-14 6.82979e-10) (-5.68331e-11 -1.87937e-12 9.37904e-10) (-5.68331e-11 -1.87937e-12 9.37904e-10) (-5.68331e-11 -1.87937e-12 9.37904e-10) (-9.04511e-12 9.10047e-12 4.13693e-10) (-9.04511e-12 9.10047e-12 4.13693e-10) (-7.23558e-12 -9.82158e-14 7.05391e-10) (-7.23558e-12 -9.82158e-14 7.05391e-10) (-7.23558e-12 -9.82158e-14 7.05391e-10)
750           (1.34601e-12 5.56384e-11 9.09933e-11) (1.34601e-12 5.56384e-11 9.09933e-11) (1.34601e-12 5.56384e-11 9.09933e-11) (5.59815e-11 -2.15486e-12 -2.42808e-10) (5.59815e-11 -2.15486e-12 -2.42808e-10) (5.59815e-11 -2.15486e-12 -2.42808e-10) (8.24195e-12 1.63772e-11 -4.80598e-10) (8.24195e-12 1.63772e-11 -4.80598e-10) (-8.27568e-12 8.07469e-12 -9.07e-10) (-8.27568e-12 8.07469e-12 -9.07e-10) (-8.27568e-12 8.07469e-12 -9.07e-10)
800           (-6.07293e-11 3.15257e-12 6.26078e-10) (-6.07293e-11 3.15257e-12 6.26078e-10) (-6.07293e-11 3.15257e-12 6.26078e-10) (-2.25401e-13 -1.05932e-12 1.18508e-09) (-2.25401e-13 -1.05932e-12 1.18508e-09) (-2.25401e-13 -1.05932e-12 1.18508e-09) (-1.00395e-11 -8.13385e-12 5.77654e-10) (-1.00395e-11 -8.13385e-12 5.77654e-10) (8.92815e-12 9.28216e-12 9.27356e-10) (8.92815e-12 9.28216e-12 9.27356e-10) (8.92815e-12 9.28216e-12 9.27356e-10)
850           (-5.99551e-11 -8.46987e-13 4.31028e-10) (-5.99551e-11 -8.46987e-13 4.31028e-10) (-5.99551e-11 -8.46987e-13 4.31028e-10) (2.2739e-12 -2.86141e-12 5.35241e-10) (2.2739e-12 -2.86141e-12 5.35241e-10) (2.2739e-12 -2.86141e-12 5.35241e-10) (2.6331e-11 1.74532e-11 3.87798e-11) (2.6331e-11 1.74532e-11 3.87798e-11) (-8.72809e-13 8.20348e-12 4.0494e-11) (-8.72809e-13 8.20348e-12 4.0494e-11) (-8.72809e-13 8.20348e-12 4.0494e-11)
900           (3.064e-12 3.04139e-12 4.61902e-10) (3.064e-12 3.04139e-12 4.61902e-10) (3.064e-12 3.04139e-12 4.61902e-10) (-5.57206e-11 1.09121e-10 -1.88647e-10) (-5.57206e-11 1.09121e-10 -1.88647e-10) (-5.57206e-11 1.09121e-10 -1.88647e-10) (1.10412e-11 9.5911e-13 -7.78776e-10) (1.10412e-11 9.5911e-13 -7.78776e-10) (-9.02317e-13 4.65743e-15 -1.41416e-09) (-9.02317e-13 4.65743e-15 -1.41416e-09) (-9.02317e-13 4.65743e-15 -1.41416e-09)
950           (-6.13121e-11 -6.78343e-12 2.32145e-11) (-6.13121e-11 -6.78343e-12 2.32145e-11) (-6.13121e-11 -6.78343e-12 2.32145e-11) (-5.64518e-12 3.67976e-12 -1.09909e-09) (-5.64518e-12 3.67976e-12 -1.09909e-09) (-5.64518e-12 3.67976e-12 -1.09909e-09) (-8.29453e-12 -9.95178e-12 -9.47889e-10) (-8.29453e-12 -9.95178e-12 -9.47889e-10) (-7.59998e-13 8.99356e-12 -1.5543e-09) (-7.59998e-13 8.99356e-12 -1.5543e-09) (-7.59998e-13 8.99356e-12 -1.5543e-09)
1000          (-4.9717e-11 3.14335e-12 -3.66469e-10) (-4.9717e-11 3.14335e-12 -3.66469e-10) (-4.9717e-11 3.14335e-12 -3.66469e-10) (-5.66774e-12 -5.94981e-11 -1.28197e-09) (-5.66774e-12 -5.94981e-11 -1.28197e-09) (-5.66774e-12 -5.94981e-11 -1.28197e-09) (-1.85917e-12 -9.0211e-12 -9.00283e-10) (-1.85917e-12 -9.0211e-12 -9.00283e-10) (8.35022e-12 1.00771e-11 -1.37887e-09) (8.35022e-12 1.00771e-11 -1.37887e-09) (8.35022e-12 1.00771e-11 -1.37887e-09)
1050          (3.46199e-12 -5.45953e-11 -7.94699e-10) (3.46199e-12 -5.45953e-11 -7.94699e-10) (3.46199e-12 -5.45953e-11 -7.94699e-10) (-9.10324e-13 -2.37361e-12 -2.67051e-09) (-9.10324e-13 -2.37361e-12 -2.67051e-09) (-9.10324e-13 -2.37361e-12 -2.67051e-09) (8.31322e-13 1.00283e-12 -1.72388e-09) (8.31322e-13 1.00283e-12 -1.72388e-09) (-8.09464e-12 -8.27915e-12 -2.97207e-09) (-8.09464e-12 -8.27915e-12 -2.97207e-09) (-8.09464e-12 -8.27915e-12 -2.97207e-09)
1100          (-5.63937e-12 -4.77643e-12 -9.20852e-10) (-5.63937e-12 -4.77643e-12 -9.20852e-10) (-5.63937e-12 -4.77643e-12 -9.20852e-10) (-1.26018e-12 8.9156e-12 -3.47514e-09) (-1.26018e-12 8.9156e-12 -3.47514e-09) (-1.26018e-12 8.9156e-12 -3.47514e-09) (1.07766e-11 8.33675e-13 -2.38588e-09) (1.07766e-11 8.33675e-13 -2.38588e-09) (-5.30705e-16 -9.67376e-13 -3.94996e-09) (-5.30705e-16 -9.67376e-13 -3.94996e-09) (-5.30705e-16 -9.67376e-13 -3.94996e-09)
1150          (5.59663e-11 -5.62902e-11 -1.1778e-09) (5.59663e-11 -5.62902e-11 -1.1778e-09) (5.59663e-11 -5.62902e-11 -1.1778e-09) (6.20502e-12 -5.43828e-11 -5.25684e-09) (6.20502e-12 -5.43828e-11 -5.25684e-09) (6.20502e-12 -5.43828e-11 -5.25684e-09) (-1.66584e-12 -2.68331e-13 -3.51706e-09) (-1.66584e-12 -2.68331e-13 -3.51706e-09) (-1.4447e-13 -8.31455e-12 -5.71332e-09) (-1.4447e-13 -8.31455e-12 -5.71332e-09) (-1.4447e-13 -8.31455e-12 -5.71332e-09)
1200          (5.31469e-11 5.84986e-11 7.88969e-10) (5.31469e-11 5.84986e-11 7.88969e-10) (5.31469e-11 5.84986e-11 7.88969e-10) (-6.31337e-11 -2.75892e-12 2.02571e-09) (-6.31337e-11 -2.75892e-12 2.02571e-09) (-6.31337e-11 -2.75892e-12 2.02571e-09) (8.42327e-12 9.17536e-12 1.00579e-09) (8.42327e-12 9.17536e-12 1.00579e-09) (9.19336e-12 -9.09973e-13 1.53349e-09) (9.19336e-12 -9.09973e-13 1.53349e-09) (9.19336e-12 -9.09973e-13 1.53349e-09)
1250          (5.1231e-12 -3.31904e-12 8.85099e-12) (5.1231e-12 -3.31904e-12 8.85099e-12) (5.1231e-12 -3.31904e-12 8.85099e-12) (5.71869e-11 -2.10922e-12 -4.11146e-10) (5.71869e-11 -2.10922e-12 -4.11146e-10) (5.71869e-11 -2.10922e-12 -4.11146e-10) (7.58553e-13 -1.25141e-13 -1.95266e-10) (7.58553e-13 -1.25141e-13 -1.95266e-10) (8.90345e-12 -9.1374e-12 -2.22669e-10) (8.90345e-12 -9.1374e-12 -2.22669e-10) (8.90345e-12 -9.1374e-12 -2.22669e-10)
1300          (-1.03262e-10 5.82083e-11 9.83912e-10) (-1.03262e-10 5.82083e-11 9.83912e-10) (-1.03262e-10 5.82083e-11 9.83912e-10) (1.3837e-12 -4.8409e-11 9.04391e-10) (1.3837e-12 -4.8409e-11 9.04391e-10) (1.3837e-12 -4.8409e-11 9.04391e-10) (2.09468e-14 9.31715e-13 2.41455e-12) (2.09468e-14 9.31715e-13 2.41455e-12) (1.71689e-12 -9.09386e-12 -2.25697e-10) (1.71689e-12 -9.09386e-12 -2.25697e-10) (1.71689e-12 -9.09386e-12 -2.25697e-10)
1350          (-1.74864e-12 -7.08703e-12 -2.91427e-10) (-1.74864e-12 -7.08703e-12 -2.91427e-10) (-1.74864e-12 -7.08703e-12 -2.91427e-10) (-1.06613e-11 4.5309e-12 -1.46999e-09) (-1.06613e-11 4.5309e-12 -1.46999e-09) (-1.06613e-11 4.5309e-12 -1.46999e-09) (-2.06481e-14 8.25728e-12 -9.81013e-10) (-2.06481e-14 8.25728e-12 -9.81013e-10) (-8.83422e-13 -9.44684e-13 -1.63871e-09) (-8.83422e-13 -9.44684e-13 -1.63871e-09) (-8.83422e-13 -9.44684e-13 -1.63871e-09)
1400          (-5.77295e-11 -5.7785e-11 -3.31515e-10) (-5.77295e-11 -5.7785e-11 -3.31515e-10) (-5.77295e-11 -5.7785e-11 -3.31515e-10) (1.65233e-13 4.74769e-13 -1.56974e-09) (1.65233e-13 4.74769e-13 -1.56974e-09) (1.65233e-13 4.74769e-13 -1.56974e-09) (1.73123e-11 9.12631e-12 -1.07921e-09) (1.73123e-11 9.12631e-12 -1.07921e-09) (9.45711e-13 1.07977e-11 -1.68112e-09) (9.45711e-13 1.07977e-11 -1.68112e-09) (9.45711e-13 1.07977e-11 -1.68112e-09)
1450          (-4.01981e-13 -6.95288e-11 7.72747e-10) (-4.01981e-13 -6.95288e-11 7.72747e-10) (-4.01981e-13 -6.95288e-11 7.72747e-10) (-5.87928e-11 -5.28502e-11 3.3507e-10) (-5.87928e-11 -5.28502e-11 3.3507e-10) (-5.87928e-11 -5.28502e-11 3.3507e-10) (-8.9216e-13 1.87691e-12 1.14423e-10) (-8.9216e-13 1.87691e-12 1.14423e-10) (-9.8971e-12 -3.72009e-14 3.09918e-12) (-9.8971e-12 -3.72009e-14 3.09918e-12) (-9.8971e-12 -3.72009e-14 3.09918e-12)
1500          (-5.92113e-11 4.72502e-12 3.1432e-10) (-5.92113e-11 4.72502e-12 3.1432e-10) (-5.92113e-11 4.72502e-12 3.1432e-10) (-5.68156e-11 1.63108e-12 -1.76409e-09) (-5.68156e-11 1.63108e-12 -1.76409e-09) (-5.68156e-11 1.63108e-12 -1.76409e-09) (1.78071e-12 9.84927e-12 -1.90749e-09) (1.78071e-12 9.84927e-12 -1.90749e-09) (8.06011e-13 7.21905e-14 -3.13816e-09) (8.06011e-13 7.21905e-14 -3.13816e-09) (8.06011e-13 7.21905e-14 -3.13816e-09)
1550          (-5.48497e-11 1.07364e-10 -1.57243e-10) (-5.48497e-11 1.07364e-10 -1.57243e-10) (-5.48497e-11 1.07364e-10 -1.57243e-10) (1.87649e-12 -4.96252e-11 -3.45217e-09) (1.87649e-12 -4.96252e-11 -3.45217e-09) (1.87649e-12 -4.96252e-11 -3.45217e-09) (-7.19715e-12 -9.0565e-12 -2.86072e-09) (-7.19715e-12 -9.0565e-12 -2.86072e-09) (-9.29452e-12 1.01645e-12 -4.57253e-09) (-9.29452e-12 1.01645e-12 -4.57253e-09) (-9.29452e-12 1.01645e-12 -4.57253e-09)
1600          (-5.32616e-11 -5.57489e-11 3.71606e-10) (-5.32616e-11 -5.57489e-11 3.71606e-10) (-5.32616e-11 -5.57489e-11 3.71606e-10) (-3.80794e-12 3.28665e-13 -1.54128e-10) (-3.80794e-12 3.28665e-13 -1.54128e-10) (-3.80794e-12 3.28665e-13 -1.54128e-10) (-2.01515e-15 1.65655e-11 -5.13841e-10) (-2.01515e-15 1.65655e-11 -5.13841e-10) (1.00723e-11 -9.88544e-12 -8.83914e-10) (1.00723e-11 -9.88544e-12 -8.83914e-10) (1.00723e-11 -9.88544e-12 -8.83914e-10)
1650          (5.60826e-11 -5.89482e-11 -1.86467e-10) (5.60826e-11 -5.89482e-11 -1.86467e-10) (5.60826e-11 -5.89482e-11 -1.86467e-10) (-5.4846e-11 -5.78517e-11 -7.75994e-10) (-5.4846e-11 -5.78517e-11 -7.75994e-10) (-5.4846e-11 -5.78517e-11 -7.75994e-10) (-8.25216e-12 1.00766e-11 -3.3677e-10) (-8.25216e-12 1.00766e-11 -3.3677e-10) (-9.52258e-13 1.02791e-12 -5.69695e-10) (-9.52258e-13 1.02791e-12 -5.69695e-10) (-9.52258e-13 1.02791e-12 -5.69695e-10)
1700          (6.279e-11 8.42668e-12 4.31951e-10) (6.279e-11 8.42668e-12 4.31951e-10) (6.279e-11 8.42668e-12 4.31951e-10) (5.36897e-13 7.1512e-13 7.69334e-10) (5.36897e-13 7.1512e-13 7.69334e-10) (5.36897e-13 7.1512e-13 7.69334e-10) (-9.08971e-13 8.73219e-13 3.17274e-10) (-9.08971e-13 8.73219e-13 3.17274e-10) (1.00182e-11 -1.45632e-13 3.39739e-10) (1.00182e-11 -1.45632e-13 3.39739e-10) (1.00182e-11 -1.45632e-13 3.39739e-10)
1750          (5.58411e-11 6.11985e-11 -1.94077e-10) (5.58411e-11 6.11985e-11 -1.94077e-10) (5.58411e-11 6.11985e-11 -1.94077e-10) (-2.01046e-12 3.31031e-12 -2.12199e-09) (-2.01046e-12 3.31031e-12 -2.12199e-09) (-2.01046e-12 3.31031e-12 -2.12199e-09) (-8.10762e-12 -2.13157e-14 -1.59704e-09) (-8.10762e-12 -2.13157e-14 -1.59704e-09) (-3.10347e-14 9.71123e-13 -2.59787e-09) (-3.10347e-14 9.71123e-13 -2.59787e-09) (-3.10347e-14 9.71123e-13 -2.59787e-09)
1800          (5.47156e-11 -5.88064e-11 1.42218e-10) (5.47156e-11 -5.88064e-11 1.42218e-10) (5.47156e-11 -5.88064e-11 1.42218e-10) (-1.14485e-10 -6.0067e-11 9.36764e-10) (-1.14485e-10 -6.0067e-11 9.36764e-10) (-1.14485e-10 -6.0067e-11 9.36764e-10) (7.43922e-13 -8.3694e-13 7.44117e-10) (7.43922e-13 -8.3694e-13 7.44117e-10) (8.33166e-13 8.16186e-12 1.00082e-09) (8.33166e-13 8.16186e-12 1.00082e-09) (8.33166e-13 8.16186e-12 1.00082e-09)
1850          (-5.96899e-11 -6.04047e-12 -4.89141e-10) (-5.96899e-11 -6.04047e-12 -4.89141e-10) (-5.96899e-11 -6.04047e-12 -4.89141e-10) (-1.12802e-10 -5.97034e-11 -3.20523e-09) (-1.12802e-10 -5.97034e-11 -3.20523e-09) (-1.12802e-10 -5.97034e-11 -3.20523e-09) (-1.73081e-11 -1.98722e-12 -2.30916e-09) (-1.73081e-11 -1.98722e-12 -2.30916e-09) (-9.54328e-13 9.91314e-13 -3.63944e-09) (-9.54328e-13 9.91314e-13 -3.63944e-09) (-9.54328e-13 9.91314e-13 -3.63944e-09)
1900          (-4.9966e-11 1.25137e-13 -3.78522e-10) (-4.9966e-11 1.25137e-13 -3.78522e-10) (-4.9966e-11 1.25137e-13 -3.78522e-10) (-5.40274e-11 5.1806e-12 -2.44829e-09) (-5.40274e-11 5.1806e-12 -2.44829e-09) (-5.40274e-11 5.1806e-12 -2.44829e-09) (9.99293e-12 9.05048e-12 -1.70077e-09) (9.99293e-12 9.05048e-12 -1.70077e-09) (-7.35615e-12 8.05504e-13 -2.88557e-09) (-7.35615e-12 8.05504e-13 -2.88557e-09) (-7.35615e-12 8.05504e-13 -2.88557e-09)
1950          (6.35382e-11 1.87398e-12 -4.04637e-10) (6.35382e-11 1.87398e-12 -4.04637e-10) (6.35382e-11 1.87398e-12 -4.04637e-10) (-5.73541e-12 -5.423e-11 -2.20312e-09) (-5.73541e-12 -5.423e-11 -2.20312e-09) (-5.73541e-12 -5.423e-11 -2.20312e-09) (9.64942e-13 -7.74043e-13 -1.38766e-09) (9.64942e-13 -7.74043e-13 -1.38766e-09) (-9.19169e-12 -1.00459e-11 -2.38642e-09) (-9.19169e-12 -1.00459e-11 -2.38642e-09) (-9.19169e-12 -1.00459e-11 -2.38642e-09)
2000          (-7.59184e-11 5.15113e-11 9.66046e-10) (-7.59184e-11 5.15113e-11 9.66046e-10) (-7.59184e-11 5.15113e-11 9.66046e-10) (5.71445e-11 -5.1625e-11 1.04975e-09) (5.71445e-11 -5.1625e-11 1.04975e-09) (5.71445e-11 -5.1625e-11 1.04975e-09) (-1.72371e-11 8.84682e-13 2.01106e-10) (-1.72371e-11 8.84682e-13 2.01106e-10) (9.9262e-12 9.94995e-12 4.13514e-10) (9.9262e-12 9.94995e-12 4.13514e-10) (9.9262e-12 9.94995e-12 4.13514e-10)
2050          (-6.22226e-11 -1.99856e-12 -2.26697e-10) (-6.22226e-11 -1.99856e-12 -2.26697e-10) (-6.22226e-11 -1.99856e-12 -2.26697e-10) (-6.0318e-12 1.22018e-10 -1.07551e-09) (-6.0318e-12 1.22018e-10 -1.07551e-09) (-6.0318e-12 1.22018e-10 -1.07551e-09) (9.19638e-12 -1.01534e-11 -6.4958e-10) (9.19638e-12 -1.01534e-11 -6.4958e-10) (9.18637e-12 -6.63152e-14 -1.30757e-09) (9.18637e-12 -6.63152e-14 -1.30757e-09) (9.18637e-12 -6.63152e-14 -1.30757e-09)
2100          (6.18257e-11 5.44599e-11 1.42178e-10) (6.18257e-11 5.44599e-11 1.42178e-10) (6.18257e-11 5.44599e-11 1.42178e-10) (-5.63531e-11 9.37369e-12 3.20435e-10) (-5.63531e-11 9.37369e-12 3.20435e-10) (-5.63531e-11 9.37369e-12 3.20435e-10) (9.15504e-12 -9.25038e-13 4.12209e-10) (9.15504e-12 -9.25038e-13 4.12209e-10) (-9.87515e-12 9.1475e-12 5.38953e-10) (-9.87515e-12 9.1475e-12 5.38953e-10) (-9.87515e-12 9.1475e-12 5.38953e-10)
2150          (-1.053e-10 -5.95231e-11 -3.98911e-10) (-1.053e-10 -5.95231e-11 -3.98911e-10) (-1.053e-10 -5.95231e-11 -3.98911e-10) (4.21201e-12 -4.68509e-13 -2.70382e-09) (4.21201e-12 -4.68509e-13 -2.70382e-09) (4.21201e-12 -4.68509e-13 -2.70382e-09) (7.73381e-14 -9.38583e-14 -1.84709e-09) (7.73381e-14 -9.38583e-14 -1.84709e-09) (-9.90683e-12 -1.86674e-12 -2.9704e-09) (-9.90683e-12 -1.86674e-12 -2.9704e-09) (-9.90683e-12 -1.86674e-12 -2.9704e-09)
2200          (4.09773e-12 -5.28513e-11 -1.48132e-09) (4.09773e-12 -5.28513e-11 -1.48132e-09) (4.09773e-12 -5.28513e-11 -1.48132e-09) (-5.09659e-11 -4.14922e-13 -5.63735e-09) (-5.09659e-11 -4.14922e-13 -5.63735e-09) (-5.09659e-11 -4.14922e-13 -5.63735e-09) (1.00303e-11 -8.38653e-12 -3.54547e-09) (1.00303e-11 -8.38653e-12 -3.54547e-09) (-9.47899e-13 1.84269e-12 -5.96896e-09) (-9.47899e-13 1.84269e-12 -5.96896e-09) (-9.47899e-13 1.84269e-12 -5.96896e-09)
2250          (-2.88429e-12 9.97395e-13 -8.40994e-10) (-2.88429e-12 9.97395e-13 -8.40994e-10) (-2.88429e-12 9.97395e-13 -8.40994e-10) (-4.47602e-12 -2.67595e-12 -2.53725e-09) (-4.47602e-12 -2.67595e-12 -2.53725e-09) (-4.47602e-12 -2.67595e-12 -2.53725e-09) (-8.13022e-12 7.53877e-13 -1.36264e-09) (-8.13022e-12 7.53877e-13 -1.36264e-09) (7.88711e-13 8.10496e-13 -2.4073e-09) (7.88711e-13 8.10496e-13 -2.4073e-09) (7.88711e-13 8.10496e-13 -2.4073e-09)
2300          (6.67394e-11 -6.2062e-11 8.8006e-10) (6.67394e-11 -6.2062e-11 8.8006e-10) (6.67394e-11 -6.2062e-11 8.8006e-10) (9.62511e-13 6.40299e-12 4.48911e-10) (9.62511e-13 6.40299e-12 4.48911e-10) (9.62511e-13 6.40299e-12 4.48911e-10) (-8.97546e-12 8.16423e-12 -3.10503e-10) (-8.97546e-12 8.16423e-12 -3.10503e-10) (-6.71583e-14 7.4026e-13 -4.63113e-10) (-6.71583e-14 7.4026e-13 -4.63113e-10) (-6.71583e-14 7.4026e-13 -4.63113e-10)
2350          (6.15449e-11 5.21729e-13 -3.45112e-10) (6.15449e-11 5.21729e-13 -3.45112e-10) (6.15449e-11 5.21729e-13 -3.45112e-10) (5.43568e-11 1.13403e-10 -1.26183e-09) (5.43568e-11 1.13403e-10 -1.26183e-09) (5.43568e-11 1.13403e-10 -1.26183e-09) (-9.22903e-12 -9.27857e-12 -7.22305e-10) (-9.22903e-12 -9.27857e-12 -7.22305e-10) (9.09402e-12 1.92761e-11 -1.11518e-09) (9.09402e-12 1.92761e-11 -1.11518e-09) (9.09402e-12 1.92761e-11 -1.11518e-09)
2400          (-1.15589e-10 -8.45477e-12 -4.34687e-10) (-1.15589e-10 -8.45477e-12 -4.34687e-10) (-1.15589e-10 -8.45477e-12 -4.34687e-10) (5.35703e-12 -1.71527e-12 -2.95832e-09) (5.35703e-12 -1.71527e-12 -2.95832e-09) (5.35703e-12 -1.71527e-12 -2.95832e-09) (1.72456e-11 -1.82227e-11 -2.32921e-09) (1.72456e-11 -1.82227e-11 -2.32921e-09) (-9.20071e-13 -9.1968e-12 -3.87465e-09) (-9.20071e-13 -9.1968e-12 -3.87465e-09) (-9.20071e-13 -9.1968e-12 -3.87465e-09)
2450          (6.36338e-12 2.1896e-12 -9.33944e-10) (6.36338e-12 2.1896e-12 -9.33944e-10) (6.36338e-12 2.1896e-12 -9.33944e-10) (1.46143e-12 5.31126e-12 -4.45125e-09) (1.46143e-12 5.31126e-12 -4.45125e-09) (1.46143e-12 5.31126e-12 -4.45125e-09) (-9.2349e-13 1.01185e-11 -2.90806e-09) (-9.2349e-13 1.01185e-11 -2.90806e-09) (-9.9115e-12 9.37981e-13 -4.78657e-09) (-9.9115e-12 9.37981e-13 -4.78657e-09) (-9.9115e-12 9.37981e-13 -4.78657e-09)
2500          (1.13733e-12 2.04748e-12 7.28971e-10) (1.13733e-12 2.04748e-12 7.28971e-10) (1.13733e-12 2.04748e-12 7.28971e-10) (5.80263e-11 5.99497e-11 2.11124e-09) (5.80263e-11 5.99497e-11 2.11124e-09) (5.80263e-11 5.99497e-11 2.11124e-09) (1.16617e-13 8.12023e-12 1.16537e-09) (1.16617e-13 8.12023e-12 1.16537e-09) (-9.11546e-13 6.22902e-14 1.8127e-09) (-9.11546e-13 6.22902e-14 1.8127e-09) (-9.11546e-13 6.22902e-14 1.8127e-09)
2550          (2.09686e-12 7.54008e-14 -1.11484e-09) (2.09686e-12 7.54008e-14 -1.11484e-09) (2.09686e-12 7.54008e-14 -1.11484e-09) (-1.1429e-10 3.84797e-12 -4.33737e-09) (-1.1429e-10 3.84797e-12 -4.33737e-09) (-1.1429e-10 3.84797e-12 -4.33737e-09) (-9.10876e-12 9.12781e-12 -2.88852e-09) (-9.10876e-12 9.12781e-12 -2.88852e-09) (-1.84036e-13 9.11957e-12 -4.64786e-09) (-1.84036e-13 9.11957e-12 -4.64786e-09) (-1.84036e-13 9.11957e-12 -4.64786e-09)
2600          (2.00703e-12 7.40502e-13 -7.21642e-10) (2.00703e-12 7.40502e-13 -7.21642e-10) (2.00703e-12 7.40502e-13 -7.21642e-10) (-5.63252e-11 1.79682e-12 -1.78015e-09) (-5.63252e-11 1.79682e-12 -1.78015e-09) (-5.63252e-11 1.79682e-12 -1.78015e-09) (8.06618e-12 -2.43586e-13 -1.11133e-09) (8.06618e-12 -2.43586e-13 -1.11133e-09) (8.22325e-12 1.53724e-11 -1.95807e-09) (8.22325e-12 1.53724e-11 -1.95807e-09) (8.22325e-12 1.53724e-11 -1.95807e-09)
2650          (-1.09488e-11 1.94279e-12 6.42074e-10) (-1.09488e-11 1.94279e-12 6.42074e-10) (-1.09488e-11 1.94279e-12 6.42074e-10) (-5.64278e-11 8.25109e-13 4.65032e-10) (-5.64278e-11 8.25109e-13 4.65032e-10) (-5.64278e-11 8.25109e-13 4.65032e-10) (2.1662e-13 -1.06324e-12 -1.44913e-10) (2.1662e-13 -1.06324e-12 -1.44913e-10) (-8.22327e-12 -8.19158e-12 -3.804e-10) (-8.22327e-12 -8.19158e-12 -3.804e-10) (-8.22327e-12 -8.19158e-12 -3.804e-10)
2700          (-1.19681e-10 1.73073e-12 1.83534e-10) (-1.19681e-10 1.73073e-12 1.83534e-10) (-1.19681e-10 1.73073e-12 1.83534e-10) (-3.62544e-12 7.46262e-13 -2.01363e-10) (-3.62544e-12 7.46262e-13 -2.01363e-10) (-3.62544e-12 7.46262e-13 -2.01363e-10) (9.13917e-12 9.31053e-13 -2.91367e-10) (9.13917e-12 9.31053e-13 -2.91367e-10) (-1.688e-12 8.73463e-14 -3.86365e-10) (-1.688e-12 8.73463e-14 -3.86365e-10) (-1.688e-12 8.73463e-14 -3.86365e-10)
2750          (5.45e-11 4.9867e-13 -3.8331e-10) (5.45e-11 4.9867e-13 -3.8331e-10) (5.45e-11 4.9867e-13 -3.8331e-10) (-1.12017e-12 -4.37471e-12 -3.10951e-09) (-1.12017e-12 -4.37471e-12 -3.10951e-09) (-1.12017e-12 -4.37471e-12 -3.10951e-09) (-8.41256e-14 -5.94008e-14 -2.41665e-09) (-8.41256e-14 -5.94008e-14 -2.41665e-09) (3.67972e-14 1.0141e-11 -4.05432e-09) (3.67972e-14 1.0141e-11 -4.05432e-09) (3.67972e-14 1.0141e-11 -4.05432e-09)
2800          (-1.15986e-10 9.49398e-12 -5.46852e-10) (-1.15986e-10 9.49398e-12 -5.46852e-10) (-1.15986e-10 9.49398e-12 -5.46852e-10) (-5.87453e-11 5.35248e-12 -2.14983e-09) (-5.87453e-11 5.35248e-12 -2.14983e-09) (-5.87453e-11 5.35248e-12 -2.14983e-09) (1.01515e-12 1.13059e-12 -1.17712e-09) (1.01515e-12 1.13059e-12 -1.17712e-09) (-8.99377e-12 -9.12703e-12 -2.15296e-09) (-8.99377e-12 -9.12703e-12 -2.15296e-09) (-8.99377e-12 -9.12703e-12 -2.15296e-09)
2850          (-8.81033e-14 4.70299e-12 -6.99899e-10) (-8.81033e-14 4.70299e-12 -6.99899e-10) (-8.81033e-14 4.70299e-12 -6.99899e-10) (5.95124e-12 -5.46102e-12 -1.9581e-09) (5.95124e-12 -5.46102e-12 -1.9581e-09) (5.95124e-12 -5.46102e-12 -1.9581e-09) (6.9161e-13 -9.35888e-13 -1.21268e-09) (6.9161e-13 -9.35888e-13 -1.21268e-09) (8.21482e-12 -2.7368e-11 -1.95504e-09) (8.21482e-12 -2.7368e-11 -1.95504e-09) (8.21482e-12 -2.7368e-11 -1.95504e-09)
2900          (1.30351e-12 -1.57106e-12 -1.35704e-10) (1.30351e-12 -1.57106e-12 -1.35704e-10) (1.30351e-12 -1.57106e-12 -1.35704e-10) (-6.17814e-12 -2.18415e-12 5.64907e-10) (-6.17814e-12 -2.18415e-12 5.64907e-10) (-6.17814e-12 -2.18415e-12 5.64907e-10) (8.99613e-12 9.49953e-13 5.68783e-10) (8.99613e-12 9.49953e-13 5.68783e-10) (-8.24699e-14 -9.56965e-13 8.19162e-10) (-8.24699e-14 -9.56965e-13 8.19162e-10) (-8.24699e-14 -9.56965e-13 8.19162e-10)
2950          (-1.21789e-10 -5.33914e-11 -8.37724e-10) (-1.21789e-10 -5.33914e-11 -8.37724e-10) (-1.21789e-10 -5.33914e-11 -8.37724e-10) (5.62332e-11 1.81228e-12 -4.66712e-09) (5.62332e-11 1.81228e-12 -4.66712e-09) (5.62332e-11 1.81228e-12 -4.66712e-09) (8.11236e-12 8.33069e-12 -3.25692e-09) (8.11236e-12 8.33069e-12 -3.25692e-09) (-2.01993e-14 -9.21395e-12 -5.36946e-09) (-2.01993e-14 -9.21395e-12 -5.36946e-09) (-2.01993e-14 -9.21395e-12 -5.36946e-09)
3000          (6.32086e-12 3.39745e-12 -3.37184e-10) (6.32086e-12 3.39745e-12 -3.37184e-10) (6.32086e-12 3.39745e-12 -3.37184e-10) (1.37893e-12 -5.96701e-11 -1.6462e-09) (1.37893e-12 -5.96701e-11 -1.6462e-09) (1.37893e-12 -5.96701e-11 -1.6462e-09) (-1.83453e-12 9.21879e-12 -1.1697e-09) (-1.83453e-12 9.21879e-12 -1.1697e-09) (-8.20213e-12 8.90815e-12 -2.03831e-09) (-8.20213e-12 8.90815e-12 -2.03831e-09) (-8.20213e-12 8.90815e-12 -2.03831e-09)
3050          (6.11572e-11 5.72784e-12 -1.02218e-09) (6.11572e-11 5.72784e-12 -1.02218e-09) (6.11572e-11 5.72784e-12 -1.02218e-09) (-1.91904e-12 1.02796e-11 -4.40064e-09) (-1.91904e-12 1.02796e-11 -4.40064e-09) (-1.91904e-12 1.02796e-11 -4.40064e-09) (-2.91816e-14 -9.73168e-14 -3.30469e-09) (-2.91816e-14 -9.73168e-14 -3.30469e-09) (-8.89794e-12 -1.3864e-13 -5.38521e-09) (-8.89794e-12 -1.3864e-13 -5.38521e-09) (-8.89794e-12 -1.3864e-13 -5.38521e-09)
3100          (5.72216e-11 1.61945e-12 -1.18255e-09) (5.72216e-11 1.61945e-12 -1.18255e-09) (5.72216e-11 1.61945e-12 -1.18255e-09) (-8.86129e-12 5.93847e-11 -4.20171e-09) (-8.86129e-12 5.93847e-11 -4.20171e-09) (-8.86129e-12 5.93847e-11 -4.20171e-09) (9.79792e-13 -9.80724e-12 -2.72983e-09) (9.79792e-13 -9.80724e-12 -2.72983e-09) (9.79863e-12 -9.21304e-14 -4.60657e-09) (9.79863e-12 -9.21304e-14 -4.60657e-09) (9.79863e-12 -9.21304e-14 -4.60657e-09)
3150          (1.37496e-12 -5.22753e-11 -2.01583e-10) (1.37496e-12 -5.22753e-11 -2.01583e-10) (1.37496e-12 -5.22753e-11 -2.01583e-10) (1.30246e-12 5.54311e-11 -1.61827e-09) (1.30246e-12 5.54311e-11 -1.61827e-09) (1.30246e-12 5.54311e-11 -1.61827e-09) (7.91291e-13 1.72819e-11 -1.35231e-09) (7.91291e-13 1.72819e-11 -1.35231e-09) (9.41397e-13 -9.08279e-12 -2.36755e-09) (9.41397e-13 -9.08279e-12 -2.36755e-09) (9.41397e-13 -9.08279e-12 -2.36755e-09)
3200          (-6.43789e-11 5.15603e-12 5.02889e-10) (-6.43789e-11 5.15603e-12 5.02889e-10) (-6.43789e-11 5.15603e-12 5.02889e-10) (-5.44758e-11 -5.83605e-11 1.79534e-09) (-5.44758e-11 -5.83605e-11 1.79534e-09) (-5.44758e-11 -5.83605e-11 1.79534e-09) (-3.70159e-14 8.9607e-12 1.05864e-09) (-3.70159e-14 8.9607e-12 1.05864e-09) (-1.00381e-11 -9.81834e-13 1.66396e-09) (-1.00381e-11 -9.81834e-13 1.66396e-09) (-1.00381e-11 -9.81834e-13 1.66396e-09)
3250          (6.32956e-12 -5.32408e-11 -3.24981e-10) (6.32956e-12 -5.32408e-11 -3.24981e-10) (6.32956e-12 -5.32408e-11 -3.24981e-10) (-2.33426e-12 7.2431e-12 -6.41994e-10) (-2.33426e-12 7.2431e-12 -6.41994e-10) (-2.33426e-12 7.2431e-12 -6.41994e-10) (2.09177e-15 9.13953e-12 3.77633e-11) (2.09177e-15 9.13953e-12 3.77633e-11) (-9.15291e-12 -8.14239e-12 2.11673e-10) (-9.15291e-12 -8.14239e-12 2.11673e-10) (-9.15291e-12 -8.14239e-12 2.11673e-10)
3300          (-5.60213e-11 -2.02912e-12 5.75868e-11) (-5.60213e-11 -2.02912e-12 5.75868e-11) (-5.60213e-11 -2.02912e-12 5.75868e-11) (6.78139e-13 -5.32081e-11 -2.67138e-10) (6.78139e-13 -5.32081e-11 -2.67138e-10) (6.78139e-13 -5.32081e-11 -2.67138e-10) (-1.09037e-11 -1.98277e-11 -7.85503e-11) (-1.09037e-11 -1.98277e-11 -7.85503e-11) (-8.65923e-13 1.01565e-12 -6.57209e-11) (-8.65923e-13 1.01565e-12 -6.57209e-11) (-8.65923e-13 1.01565e-12 -6.57209e-11)