ITEM: TIMESTEP
5000
ITEM: NUMBER OF ATOMS
4860
ITEM: BOX BOUNDS mm mm mm
0 0.003
0 0.003
0 0.02
ITEM: ATOMS x y z f_Temp[0] 
0.00016667 0.00016667 0.00016667 983.965 
0.0005 0.00016667 0.00016667 983.965 
0.00083333 0.00016667 0.00016667 983.965 
0.0011667 0.00016667 0.00016667 983.965 
0.0015 0.00016667 0.00016667 983.965 
0.0018333 0.00016667 0.00016667 983.965 
0.0021667 0.00016667 0.00016667 983.965 
0.0025 0.00016667 0.00016667 983.965 
0.0028333 0.00016667 0.00016667 983.965 
0.00016667 0.0005 0.00016667 983.965 
0.00016667 0.00083333 0.00016667 983.965 
0.0005 0.0005 0.00016667 983.933 
0.00083333 0.0005 0.00016667 983.965 
0.0005 0.00083333 0.00016667 983.965 
0.00083333 0.00083333 0.00016667 983.965 
0.0011667 0.0005 0.00016667 983.965 
0.0011667 0.00083333 0.00016667 983.965 
0.0015 0.0005 0.00016667 983.933 
0.0015 0.00083333 0.00016667 983.965 
0.0018333 0.0005 0.00016667 983.965 
0.0018333 0.00083333 0.00016667 983.965 
0.0021667 0.0005 0.00016667 983.965 
0.0025 0.0005 0.00016667 983.933 
0.0021667 0.00083333 0.00016667 983.965 
0.0025 0.00083333 0.00016667 983.965 
0.0028333 0.0005 0.00016667 983.965 
0.0028333 0.00083333 0.00016667 983.965 
0.00016667 0.0011667 0.00016667 983.965 
0.0005 0.0011667 0.00016667 983.965 
0.00083333 0.0011667 0.00016667 983.965 
0.0011667 0.0011667 0.00016667 983.965 
0.0015 0.0011667 0.00016667 983.965 
0.0018333 0.0011667 0.00016667 983.965 
0.0021667 0.0011667 0.00016667 983.965 
0.0025 0.0011667 0.00016667 983.965 
0.0028333 0.0011667 0.00016667 983.965 
0.00016667 0.0015 0.00016667 983.965 
0.0005 0.0015 0.00016667 983.933 
0.00083333 0.0015 0.00016667 983.965 
0.0011667 0.0015 0.00016667 983.965 
0.0015 0.0015 0.00016667 983.933 
0.0018333 0.0015 0.00016667 983.965 
0.0021667 0.0015 0.00016667 983.965 
0.0025 0.0015 0.00016667 983.933 
0.0028333 0.0015 0.00016667 983.965 
0.00016667 0.0018333 0.00016667 983.965 
0.0005 0.0018333 0.00016667 983.965 
0.00083333 0.0018333 0.00016667 983.965 
0.0011667 0.0018333 0.00016667 983.965 
0.0015 0.0018333 0.00016667 983.965 
0.0018333 0.0018333 0.00016667 983.965 
0.0021667 0.0018333 0.00016667 983.965 
0.0025 0.0018333 0.00016667 983.965 
0.0028333 0.0018333 0.00016667 983.965 
0.00016667 0.0021667 0.00016667 983.965 
0.00016667 0.0025 0.00016667 983.965 
0.0005 0.0021667 0.00016667 983.965 
0.00083333 0.0021667 0.00016667 983.965 
0.0005 0.0025 0.00016667 983.933 
0.00083333 0.0025 0.00016667 983.965 
0.0011667 0.0021667 0.00016667 983.965 
0.0011667 0.0025 0.00016667 983.965 
0.0015 0.0021667 0.00016667 983.965 
0.0015 0.0025 0.00016667 983.933 
0.0018333 0.0021667 0.00016667 983.965 
0.0018333 0.0025 0.00016667 983.965 
0.0021667 0.0021667 0.00016667 983.965 
0.0025 0.0021667 0.00016667 983.965 
0.0021667 0.0025 0.00016667 983.965 
0.0025 0.0025 0.00016667 983.933 
0.0028333 0.0021667 0.00016667 983.965 
0.0028333 0.0025 0.00016667 983.965 
0.00016667 0.0028333 0.00016667 983.965 
0.0005 0.0028333 0.00016667 983.965 
0.00083333 0.0028333 0.00016667 983.965 
0.0011667 0.0028333 0.00016667 983.965 
0.0015 0.0028333 0.00016667 983.965 
0.0018333 0.0028333 0.00016667 983.965 
0.0021667 0.0028333 0.00016667 983.965 
0.0025 0.0028333 0.00016667 983.965 
0.0028333 0.0028333 0.00016667 983.965 
0.00016667 0.00016667 0.0005 981.089 
0.00016667 0.00016667 0.00083333 977.871 
0.0005 0.00016667 0.0005 981.089 
0.00083333 0.00016667 0.0005 981.089 
0.0005 0.00016667 0.00083333 977.871 
0.00083333 0.00016667 0.00083333 977.871 
0.0011667 0.00016667 0.0005 981.089 
0.0011667 0.00016667 0.00083333 977.871 
0.0015 0.00016667 0.0005 981.089 
0.0015 0.00016667 0.00083333 977.871 
0.0018333 0.00016667 0.0005 981.089 
0.0018333 0.00016667 0.00083333 977.871 
0.0021667 0.00016667 0.0005 981.089 
0.0025 0.00016667 0.0005 981.089 
0.0021667 0.00016667 0.00083333 977.871 
0.0025 0.00016667 0.00083333 977.871 
0.0028333 0.00016667 0.0005 981.089 
0.0028333 0.00016667 0.00083333 977.871 
0.00016667 0.0005 0.0005 981.089 
0.00016667 0.00083333 0.0005 981.089 
0.00016667 0.0005 0.00083333 977.871 
0.00016667 0.00083333 0.00083333 977.871 
0.0005 0.0005 0.0005 981.119 
0.00083333 0.0005 0.0005 981.089 
0.0005 0.00083333 0.0005 981.089 
0.00083333 0.00083333 0.0005 981.089 
0.0005 0.0005 0.00083333 977.871 
0.00083333 0.0005 0.00083333 977.871 
0.0005 0.00083333 0.00083333 977.871 
0.00083333 0.00083333 0.00083333 977.871 
0.0011667 0.0005 0.0005 981.089 
0.0011667 0.00083333 0.0005 981.089 
0.0011667 0.0005 0.00083333 977.871 
0.0011667 0.00083333 0.00083333 977.871 
0.0015 0.0005 0.0005 981.119 
0.0015 0.00083333 0.0005 981.089 
0.0015 0.0005 0.00083333 977.871 
0.0015 0.00083333 0.00083333 977.871 
0.0018333 0.0005 0.0005 981.089 
0.0018333 0.00083333 0.0005 981.089 
0.0018333 0.0005 0.00083333 977.871 
0.0018333 0.00083333 0.00083333 977.871 
0.0021667 0.0005 0.0005 981.089 
0.0025 0.0005 0.0005 981.119 
0.0021667 0.00083333 0.0005 981.089 
0.0025 0.00083333 0.0005 981.089 
0.0021667 0.0005 0.00083333 977.871 
0.0025 0.0005 0.00083333 977.871 
0.0021667 0.00083333 0.00083333 977.871 
0.0025 0.00083333 0.00083333 977.871 
0.0028333 0.0005 0.0005 981.089 
0.0028333 0.00083333 0.0005 981.089 
0.0028333 0.0005 0.00083333 977.871 
0.0028333 0.00083333 0.00083333 977.871 
0.00016667 0.0011667 0.0005 981.089 
0.00016667 0.0011667 0.00083333 977.871 
0.0005 0.0011667 0.0005 981.089 
0.00083333 0.0011667 0.0005 981.089 
0.0005 0.0011667 0.00083333 977.871 
0.00083333 0.0011667 0.00083333 977.871 
0.0011667 0.0011667 0.0005 981.089 
0.0011667 0.0011667 0.00083333 977.871 
0.0015 0.0011667 0.0005 981.089 
0.0015 0.0011667 0.00083333 977.871 
0.0018333 0.0011667 0.0005 981.089 
0.0018333 0.0011667 0.00083333 977.871 
0.0021667 0.0011667 0.0005 981.089 
0.0025 0.0011667 0.0005 981.089 
0.0021667 0.0011667 0.00083333 977.871 
0.0025 0.0011667 0.00083333 977.871 
0.0028333 0.0011667 0.0005 981.089 
0.0028333 0.0011667 0.00083333 977.871 
0.00016667 0.0015 0.0005 981.089 
0.00016667 0.0015 0.00083333 977.871 
0.0005 0.0015 0.0005 981.119 
0.00083333 0.0015 0.0005 981.089 
0.0005 0.0015 0.00083333 977.871 
0.00083333 0.0015 0.00083333 977.871 
0.0011667 0.0015 0.0005 981.089 
0.0011667 0.0015 0.00083333 977.871 
0.0015 0.0015 0.0005 981.119 
0.0015 0.0015 0.00083333 977.871 
0.0018333 0.0015 0.0005 981.089 
0.0018333 0.0015 0.00083333 977.871 
0.0021667 0.0015 0.0005 981.089 
0.0025 0.0015 0.0005 981.119 
0.0021667 0.0015 0.00083333 977.871 
0.0025 0.0015 0.00083333 977.871 
0.0028333 0.0015 0.0005 981.089 
0.0028333 0.0015 0.00083333 977.871 
0.00016667 0.0018333 0.0005 981.089 
0.00016667 0.0018333 0.00083333 977.871 
0.0005 0.0018333 0.0005 981.089 
0.00083333 0.0018333 0.0005 981.089 
0.0005 0.0018333 0.00083333 977.871 
0.00083333 0.0018333 0.00083333 977.871 
0.0011667 0.0018333 0.0005 981.089 
0.0011667 0.0018333 0.00083333 977.871 
0.0015 0.0018333 0.0005 981.089 
0.0015 0.0018333 0.00083333 977.871 
0.0018333 0.0018333 0.0005 981.089 
0.0018333 0.0018333 0.00083333 977.871 
0.0021667 0.0018333 0.0005 981.089 
0.0025 0.0018333 0.0005 981.089 
0.0021667 0.0018333 0.00083333 977.871 
0.0025 0.0018333 0.00083333 977.871 
0.0028333 0.0018333 0.0005 981.089 
0.0028333 0.0018333 0.00083333 977.871 
0.00016667 0.0021667 0.0005 981.089 
0.00016667 0.0025 0.0005 981.089 
0.00016667 0.0021667 0.00083333 977.871 
0.00016667 0.0025 0.00083333 977.871 
0.0005 0.0021667 0.0005 981.089 
0.00083333 0.0021667 0.0005 981.089 
0.0005 0.0025 0.0005 981.119 
0.00083333 0.0025 0.0005 981.089 
0.0005 0.0021667 0.00083333 977.871 
0.00083333 0.0021667 0.00083333 977.871 
0.0005 0.0025 0.00083333 977.871 
0.00083333 0.0025 0.00083333 977.871 
0.0011667 0.0021667 0.0005 981.089 
0.0011667 0.0025 0.0005 981.089 
0.0011667 0.0021667 0.00083333 977.871 
0.0011667 0.0025 0.00083333 977.871 
0.0015 0.0021667 0.0005 981.089 
0.0015 0.0025 0.0005 981.119 
0.0015 0.0021667 0.00083333 977.871 
0.0015 0.0025 0.00083333 977.871 
0.0018333 0.0021667 0.0005 981.089 
0.0018333 0.0025 0.0005 981.089 
0.0018333 0.0021667 0.00083333 977.871 
0.0018333 0.0025 0.00083333 977.871 
0.0021667 0.0021667 0.0005 981.089 
0.0025 0.0021667 0.0005 981.089 
0.0021667 0.0025 0.0005 981.089 
0.0025 0.0025 0.0005 981.119 
0.0021667 0.0021667 0.00083333 977.871 
0.0025 0.0021667 0.00083333 977.871 
0.0021667 0.0025 0.00083333 977.871 
0.0025 0.0025 0.00083333 977.871 
0.0028333 0.0021667 0.0005 981.089 
0.0028333 0.0025 0.0005 981.089 
0.0028333 0.0021667 0.00083333 977.871 
0.0028333 0.0025 0.00083333 977.871 
0.00016667 0.0028333 0.0005 981.089 
0.00016667 0.0028333 0.00083333 977.871 
0.0005 0.0028333 0.0005 981.089 
0.00083333 0.0028333 0.0005 981.089 
0.0005 0.0028333 0.00083333 977.871 
0.00083333 0.0028333 0.00083333 977.871 
0.0011667 0.0028333 0.0005 981.089 
0.0011667 0.0028333 0.00083333 977.871 
0.0015 0.0028333 0.0005 981.089 
0.0015 0.0028333 0.00083333 977.871 
0.0018333 0.0028333 0.0005 981.089 
0.0018333 0.0028333 0.00083333 977.871 
0.0021667 0.0028333 0.0005 981.089 
0.0025 0.0028333 0.0005 981.089 
0.0021667 0.0028333 0.00083333 977.871 
0.0025 0.0028333 0.00083333 977.871 
0.0028333 0.0028333 0.0005 981.089 
0.0028333 0.0028333 0.00083333 977.871 
0.00016667 0.00016667 0.0011667 973.302 
0.0005 0.00016667 0.0011667 973.302 
0.00083333 0.00016667 0.0011667 973.302 
0.0011667 0.00016667 0.0011667 973.302 
0.0015 0.00016667 0.0011667 973.302 
0.0018333 0.00016667 0.0011667 973.302 
0.0021667 0.00016667 0.0011667 973.302 
0.0025 0.00016667 0.0011667 973.302 
0.0028333 0.00016667 0.0011667 973.302 
0.00016667 0.0005 0.0011667 973.302 
0.00016667 0.00083333 0.0011667 973.302 
0.0005 0.0005 0.0011667 973.302 
0.00083333 0.0005 0.0011667 973.302 
0.0005 0.00083333 0.0011667 973.302 
0.00083333 0.00083333 0.0011667 973.302 
0.0011667 0.0005 0.0011667 973.302 
0.0011667 0.00083333 0.0011667 973.302 
0.0015 0.0005 0.0011667 973.302 
0.0015 0.00083333 0.0011667 973.302 
0.0018333 0.0005 0.0011667 973.302 
0.0018333 0.00083333 0.0011667 973.302 
0.0021667 0.0005 0.0011667 973.302 
0.0025 0.0005 0.0011667 973.302 
0.0021667 0.00083333 0.0011667 973.302 
0.0025 0.00083333 0.0011667 973.302 
0.0028333 0.0005 0.0011667 973.302 
0.0028333 0.00083333 0.0011667 973.302 
0.00016667 0.0011667 0.0011667 973.302 
0.0005 0.0011667 0.0011667 973.302 
0.00083333 0.0011667 0.0011667 973.302 
0.0011667 0.0011667 0.0011667 973.302 
0.0015 0.0011667 0.0011667 973.302 
0.0018333 0.0011667 0.0011667 973.302 
0.0021667 0.0011667 0.0011667 973.302 
0.0025 0.0011667 0.0011667 973.302 
0.0028333 0.0011667 0.0011667 973.302 
0.00016667 0.0015 0.0011667 973.302 
0.0005 0.0015 0.0011667 973.302 
0.00083333 0.0015 0.0011667 973.302 
0.0011667 0.0015 0.0011667 973.302 
0.0015 0.0015 0.0011667 973.302 
0.0018333 0.0015 0.0011667 973.302 
0.0021667 0.0015 0.0011667 973.302 
0.0025 0.0015 0.0011667 973.302 
0.0028333 0.0015 0.0011667 973.302 
0.00016667 0.0018333 0.0011667 973.302 
0.0005 0.0018333 0.0011667 973.302 
0.00083333 0.0018333 0.0011667 973.302 
0.0011667 0.0018333 0.0011667 973.302 
0.0015 0.0018333 0.0011667 973.302 
0.0018333 0.0018333 0.0011667 973.302 
0.0021667 0.0018333 0.0011667 973.302 
0.0025 0.0018333 0.0011667 973.302 
0.0028333 0.0018333 0.0011667 973.302 
0.00016667 0.0021667 0.0011667 973.302 
0.00016667 0.0025 0.0011667 973.302 
0.0005 0.0021667 0.0011667 973.302 
0.00083333 0.0021667 0.0011667 973.302 
0.0005 0.0025 0.0011667 973.302 
0.00083333 0.0025 0.0011667 973.302 
0.0011667 0.0021667 0.0011667 973.302 
0.0011667 0.0025 0.0011667 973.302 
0.0015 0.0021667 0.0011667 973.302 
0.0015 0.0025 0.0011667 973.302 
0.0018333 0.0021667 0.0011667 973.302 
0.0018333 0.0025 0.0011667 973.302 
0.0021667 0.0021667 0.0011667 973.302 
0.0025 0.0021667 0.0011667 973.302 
0.0021667 0.0025 0.0011667 973.302 
0.0025 0.0025 0.0011667 973.302 
0.0028333 0.0021667 0.0011667 973.302 
0.0028333 0.0025 0.0011667 973.302 
0.00016667 0.0028333 0.0011667 973.302 
0.0005 0.0028333 0.0011667 973.302 
0.00083333 0.0028333 0.0011667 973.302 
0.0011667 0.0028333 0.0011667 973.302 
0.0015 0.0028333 0.0011667 973.302 
0.0018333 0.0028333 0.0011667 973.302 
0.0021667 0.0028333 0.0011667 973.302 
0.0025 0.0028333 0.0011667 973.302 
0.0028333 0.0028333 0.0011667 973.302 
0.00016667 0.00016667 0.0015 968.107 
0.0005 0.00016667 0.0015 968.107 
0.00083333 0.00016667 0.0015 968.107 
0.0011667 0.00016667 0.0015 968.107 
0.0015 0.00016667 0.0015 968.107 
0.0018333 0.00016667 0.0015 968.107 
0.0021667 0.00016667 0.0015 968.107 
0.0025 0.00016667 0.0015 968.107 
0.0028333 0.00016667 0.0015 968.107 
0.00016667 0.0005 0.0015 968.107 
0.00016667 0.00083333 0.0015 968.107 
0.0005 0.0005 0.0015 968.027 
0.00083333 0.0005 0.0015 968.107 
0.0005 0.00083333 0.0015 968.107 
0.00083333 0.00083333 0.0015 968.107 
0.0011667 0.0005 0.0015 968.107 
0.0011667 0.00083333 0.0015 968.107 
0.0015 0.0005 0.0015 968.027 
0.0015 0.00083333 0.0015 968.107 
0.0018333 0.0005 0.0015 968.107 
0.0018333 0.00083333 0.0015 968.107 
0.0021667 0.0005 0.0015 968.107 
0.0025 0.0005 0.0015 968.027 
0.0021667 0.00083333 0.0015 968.107 
0.0025 0.00083333 0.0015 968.107 
0.0028333 0.0005 0.0015 968.107 
0.0028333 0.00083333 0.0015 968.107 
0.00016667 0.0011667 0.0015 968.107 
0.0005 0.0011667 0.0015 968.107 
0.00083333 0.0011667 0.0015 968.107 
0.0011667 0.0011667 0.0015 968.107 
0.0015 0.0011667 0.0015 968.107 
0.0018333 0.0011667 0.0015 968.107 
0.0021667 0.0011667 0.0015 968.107 
0.0025 0.0011667 0.0015 968.107 
0.0028333 0.0011667 0.0015 968.107 
0.00016667 0.0015 0.0015 968.107 
0.0005 0.0015 0.0015 968.027 
0.00083333 0.0015 0.0015 968.107 
0.0011667 0.0015 0.0015 968.107 
0.0015 0.0015 0.0015 968.027 
0.0018333 0.0015 0.0015 968.107 
0.0021667 0.0015 0.0015 968.107 
0.0025 0.0015 0.0015 968.027 
0.0028333 0.0015 0.0015 968.107 
0.00016667 0.0018333 0.0015 968.107 
0.0005 0.0018333 0.0015 968.107 
0.00083333 0.0018333 0.0015 968.107 
0.0011667 0.0018333 0.0015 968.107 
0.0015 0.0018333 0.0015 968.107 
0.0018333 0.0018333 0.0015 968.107 
0.0021667 0.0018333 0.0015 968.107 
0.0025 0.0018333 0.0015 968.107 
0.0028333 0.0018333 0.0015 968.107 
0.00016667 0.0021667 0.0015 968.107 
0.00016667 0.0025 0.0015 968.107 
0.0005 0.0021667 0.0015 968.107 
0.00083333 0.0021667 0.0015 968.107 
0.0005 0.0025 0.0015 968.027 
0.00083333 0.0025 0.0015 968.107 
0.0011667 0.0021667 0.0015 968.107 
0.0011667 0.0025 0.0015 968.107 
0.0015 0.0021667 0.0015 968.107 
0.0015 0.0025 0.0015 968.027 
0.0018333 0.0021667 0.0015 968.107 
0.0018333 0.0025 0.0015 968.107 
0.0021667 0.0021667 0.0015 968.107 
0.0025 0.0021667 0.0015 968.107 
0.0021667 0.0025 0.0015 968.107 
0.0025 0.0025 0.0015 968.027 
0.0028333 0.0021667 0.0015 968.107 
0.0028333 0.0025 0.0015 968.107 
0.00016667 0.0028333 0.0015 968.107 
0.0005 0.0028333 0.0015 968.107 
0.00083333 0.0028333 0.0015 968.107 
0.0011667 0.0028333 0.0015 968.107 
0.0015 0.0028333 0.0015 968.107 
0.0018333 0.0028333 0.0015 968.107 
0.0021667 0.0028333 0.0015 968.107 
0.0025 0.0028333 0.0015 968.107 
0.0028333 0.0028333 0.0015 968.107 
0.00016667 0.00016667 0.0018333 964.069 
0.0005 0.00016667 0.0018333 964.069 
0.00083333 0.00016667 0.0018333 964.069 
0.0011667 0.00016667 0.0018333 964.069 
0.0015 0.00016667 0.0018333 964.069 
0.0018333 0.00016667 0.0018333 964.069 
0.0021667 0.00016667 0.0018333 964.069 
0.0025 0.00016667 0.0018333 964.069 
0.0028333 0.00016667 0.0018333 964.069 
0.00016667 0.0005 0.0018333 964.069 
0.00016667 0.00083333 0.0018333 964.069 
0.0005 0.0005 0.0018333 963.902 
0.00083333 0.0005 0.0018333 964.069 
0.0005 0.00083333 0.0018333 964.069 
0.00083333 0.00083333 0.0018333 964.069 
0.0011667 0.0005 0.0018333 964.069 
0.0011667 0.00083333 0.0018333 964.069 
0.0015 0.0005 0.0018333 963.902 
0.0015 0.00083333 0.0018333 964.069 
0.0018333 0.0005 0.0018333 964.069 
0.0018333 0.00083333 0.0018333 964.069 
0.0021667 0.0005 0.0018333 964.069 
0.0025 0.0005 0.0018333 963.902 
0.0021667 0.00083333 0.0018333 964.069 
0.0025 0.00083333 0.0018333 964.069 
0.0028333 0.0005 0.0018333 964.069 
0.0028333 0.00083333 0.0018333 964.069 
0.00016667 0.0011667 0.0018333 964.069 
0.0005 0.0011667 0.0018333 964.069 
0.00083333 0.0011667 0.0018333 964.069 
0.0011667 0.0011667 0.0018333 964.069 
0.0015 0.0011667 0.0018333 964.069 
0.0018333 0.0011667 0.0018333 964.069 
0.0021667 0.0011667 0.0018333 964.069 
0.0025 0.0011667 0.0018333 964.069 
0.0028333 0.0011667 0.0018333 964.069 
0.00016667 0.0015 0.0018333 964.069 
0.0005 0.0015 0.0018333 963.902 
0.00083333 0.0015 0.0018333 964.069 
0.0011667 0.0015 0.0018333 964.069 
0.0015 0.0015 0.0018333 963.902 
0.0018333 0.0015 0.0018333 964.069 
0.0021667 0.0015 0.0018333 964.069 
0.0025 0.0015 0.0018333 963.902 
0.0028333 0.0015 0.0018333 964.069 
0.00016667 0.0018333 0.0018333 964.069 
0.0005 0.0018333 0.0018333 964.069 
0.00083333 0.0018333 0.0018333 964.069 
0.0011667 0.0018333 0.0018333 964.069 
0.0015 0.0018333 0.0018333 964.069 
0.0018333 0.0018333 0.0018333 964.069 
0.0021667 0.0018333 0.0018333 964.069 
0.0025 0.0018333 0.0018333 964.069 
0.0028333 0.0018333 0.0018333 964.069 
0.00016667 0.0021667 0.0018333 964.069 
0.00016667 0.0025 0.0018333 964.069 
0.0005 0.0021667 0.0018333 964.069 
0.00083333 0.0021667 0.0018333 964.069 
0.0005 0.0025 0.0018333 963.902 
0.00083333 0.0025 0.0018333 964.069 
0.0011667 0.0021667 0.0018333 964.069 
0.0011667 0.0025 0.0018333 964.069 
0.0015 0.0021667 0.0018333 964.069 
0.0015 0.0025 0.0018333 963.902 
0.0018333 0.0021667 0.0018333 964.069 
0.0018333 0.0025 0.0018333 964.069 
0.0021667 0.0021667 0.0018333 964.069 
0.0025 0.0021667 0.0018333 964.069 
0.0021667 0.0025 0.0018333 964.069 
0.0025 0.0025 0.0018333 963.902 
0.0028333 0.0021667 0.0018333 964.069 
0.0028333 0.0025 0.0018333 964.069 
0.00016667 0.0028333 0.0018333 964.069 
0.0005 0.0028333 0.0018333 964.069 
0.00083333 0.0028333 0.0018333 964.069 
0.0011667 0.0028333 0.0018333 964.069 
0.0015 0.0028333 0.0018333 964.069 
0.0018333 0.0028333 0.0018333 964.069 
0.0021667 0.0028333 0.0018333 964.069 
0.0025 0.0028333 0.0018333 964.069 
0.0028333 0.0028333 0.0018333 964.069 
0.00016667 0.00016667 0.0021667 960.761 
0.00016667 0.00016667 0.0025 957.656 
0.0005 0.00016667 0.0021667 960.761 
0.00083333 0.00016667 0.0021667 960.761 
0.0005 0.00016667 0.0025 957.656 
0.00083333 0.00016667 0.0025 957.656 
0.0011667 0.00016667 0.0021667 960.761 
0.0011667 0.00016667 0.0025 957.656 
0.0015 0.00016667 0.0021667 960.761 
0.0015 0.00016667 0.0025 957.656 
0.0018333 0.00016667 0.0021667 960.761 
0.0018333 0.00016667 0.0025 957.656 
0.0021667 0.00016667 0.0021667 960.761 
0.0025 0.00016667 0.0021667 960.761 
0.0021667 0.00016667 0.0025 957.656 
0.0025 0.00016667 0.0025 957.656 
0.0028333 0.00016667 0.0021667 960.761 
0.0028333 0.00016667 0.0025 957.656 
0.00016667 0.0005 0.0021667 960.761 
0.00016667 0.00083333 0.0021667 960.761 
0.00016667 0.0005 0.0025 957.656 
0.00016667 0.00083333 0.0025 957.656 
0.0005 0.0005 0.0021667 960.736 
0.00083333 0.0005 0.0021667 960.761 
0.0005 0.00083333 0.0021667 960.761 
0.00083333 0.00083333 0.0021667 960.761 
0.0005 0.0005 0.0025 957.69 
0.00083333 0.0005 0.0025 957.656 
0.0005 0.00083333 0.0025 957.656 
0.00083333 0.00083333 0.0025 957.656 
0.0011667 0.0005 0.0021667 960.761 
0.0011667 0.00083333 0.0021667 960.761 
0.0011667 0.0005 0.0025 957.656 
0.0011667 0.00083333 0.0025 957.656 
0.0015 0.0005 0.0021667 960.736 
0.0015 0.00083333 0.0021667 960.761 
0.0015 0.0005 0.0025 957.69 
0.0015 0.00083333 0.0025 957.656 
0.0018333 0.0005 0.0021667 960.761 
0.0018333 0.00083333 0.0021667 960.761 
0.0018333 0.0005 0.0025 957.656 
0.0018333 0.00083333 0.0025 957.656 
0.0021667 0.0005 0.0021667 960.761 
0.0025 0.0005 0.0021667 960.737 
0.0021667 0.00083333 0.0021667 960.761 
0.0025 0.00083333 0.0021667 960.761 
0.0021667 0.0005 0.0025 957.656 
0.0025 0.0005 0.0025 957.69 
0.0021667 0.00083333 0.0025 957.656 
0.0025 0.00083333 0.0025 957.656 
0.0028333 0.0005 0.0021667 960.761 
0.0028333 0.00083333 0.0021667 960.761 
0.0028333 0.0005 0.0025 957.656 
0.0028333 0.00083333 0.0025 957.656 
0.00016667 0.0011667 0.0021667 960.761 
0.00016667 0.0011667 0.0025 957.656 
0.0005 0.0011667 0.0021667 960.761 
0.00083333 0.0011667 0.0021667 960.761 
0.0005 0.0011667 0.0025 957.656 
0.00083333 0.0011667 0.0025 957.656 
0.0011667 0.0011667 0.0021667 960.761 
0.0011667 0.0011667 0.0025 957.656 
0.0015 0.0011667 0.0021667 960.761 
0.0015 0.0011667 0.0025 957.656 
0.0018333 0.0011667 0.0021667 960.761 
0.0018333 0.0011667 0.0025 957.656 
0.0021667 0.0011667 0.0021667 960.761 
0.0025 0.0011667 0.0021667 960.761 
0.0021667 0.0011667 0.0025 957.656 
0.0025 0.0011667 0.0025 957.656 
0.0028333 0.0011667 0.0021667 960.761 
0.0028333 0.0011667 0.0025 957.656 
0.00016667 0.0015 0.0021667 960.761 
0.00016667 0.0015 0.0025 957.656 
0.0005 0.0015 0.0021667 960.736 
0.00083333 0.0015 0.0021667 960.761 
0.0005 0.0015 0.0025 957.69 
0.00083333 0.0015 0.0025 957.656 
0.0011667 0.0015 0.0021667 960.761 
0.0011667 0.0015 0.0025 957.656 
0.0015 0.0015 0.0021667 960.736 
0.0015 0.0015 0.0025 957.69 
0.0018333 0.0015 0.0021667 960.761 
0.0018333 0.0015 0.0025 957.656 
0.0021667 0.0015 0.0021667 960.761 
0.0025 0.0015 0.0021667 960.736 
0.0021667 0.0015 0.0025 957.656 
0.0025 0.0015 0.0025 957.69 
0.0028333 0.0015 0.0021667 960.761 
0.0028333 0.0015 0.0025 957.656 
0.00016667 0.0018333 0.0021667 960.761 
0.00016667 0.0018333 0.0025 957.656 
0.0005 0.0018333 0.0021667 960.761 
0.00083333 0.0018333 0.0021667 960.761 
0.0005 0.0018333 0.0025 957.656 
0.00083333 0.0018333 0.0025 957.656 
0.0011667 0.0018333 0.0021667 960.761 
0.0011667 0.0018333 0.0025 957.656 
0.0015 0.0018333 0.0021667 960.761 
0.0015 0.0018333 0.0025 957.656 
0.0018333 0.0018333 0.0021667 960.761 
0.0018333 0.0018333 0.0025 957.656 
0.0021667 0.0018333 0.0021667 960.761 
0.0025 0.0018333 0.0021667 960.761 
0.0021667 0.0018333 0.0025 957.656 
0.0025 0.0018333 0.0025 957.656 
0.0028333 0.0018333 0.0021667 960.761 
0.0028333 0.0018333 0.0025 957.656 
0.00016667 0.0021667 0.0021667 960.761 
0.00016667 0.0025 0.0021667 960.761 
0.00016667 0.0021667 0.0025 957.656 
0.00016667 0.0025 0.0025 957.656 
0.0005 0.0021667 0.0021667 960.761 
0.00083333 0.0021667 0.0021667 960.761 
0.0005 0.0025 0.0021667 960.737 
0.00083333 0.0025 0.0021667 960.761 
0.0005 0.0021667 0.0025 957.656 
0.00083333 0.0021667 0.0025 957.656 
0.0005 0.0025 0.0025 957.69 
0.00083333 0.0025 0.0025 957.656 
0.0011667 0.0021667 0.0021667 960.761 
0.0011667 0.0025 0.0021667 960.761 
0.0011667 0.0021667 0.0025 957.656 
0.0011667 0.0025 0.0025 957.656 
0.0015 0.0021667 0.0021667 960.761 
0.0015 0.0025 0.0021667 960.736 
0.0015 0.0021667 0.0025 957.656 
0.0015 0.0025 0.0025 957.69 
0.0018333 0.0021667 0.0021667 960.761 
0.0018333 0.0025 0.0021667 960.761 
0.0018333 0.0021667 0.0025 957.656 
0.0018333 0.0025 0.0025 957.656 
0.0021667 0.0021667 0.0021667 960.761 
0.0025 0.0021667 0.0021667 960.761 
0.0021667 0.0025 0.0021667 960.761 
0.0025 0.0025 0.0021667 960.736 
0.0021667 0.0021667 0.0025 957.656 
0.0025 0.0021667 0.0025 957.656 
0.0021667 0.0025 0.0025 957.656 
0.0025 0.0025 0.0025 957.69 
0.0028333 0.0021667 0.0021667 960.761 
0.0028333 0.0025 0.0021667 960.761 
0.0028333 0.0021667 0.0025 957.656 
0.0028333 0.0025 0.0025 957.656 
0.00016667 0.0028333 0.0021667 960.761 
0.00016667 0.0028333 0.0025 957.656 
0.0005 0.0028333 0.0021667 960.761 
0.00083333 0.0028333 0.0021667 960.761 
0.0005 0.0028333 0.0025 957.656 
0.00083333 0.0028333 0.0025 957.656 
0.0011667 0.0028333 0.0021667 960.761 
0.0011667 0.0028333 0.0025 957.656 
0.0015 0.0028333 0.0021667 960.761 
0.0015 0.0028333 0.0025 957.656 
0.0018333 0.0028333 0.0021667 960.761 
0.0018333 0.0028333 0.0025 957.656 
0.0021667 0.0028333 0.0021667 960.761 
0.0025 0.0028333 0.0021667 960.761 
0.0021667 0.0028333 0.0025 957.656 
0.0025 0.0028333 0.0025 957.656 
0.0028333 0.0028333 0.0021667 960.761 
0.0028333 0.0028333 0.0025 957.656 
0.00016667 0.00016667 0.0028333 954.142 
0.0005 0.00016667 0.0028333 954.142 
0.00083333 0.00016667 0.0028333 954.142 
0.0011667 0.00016667 0.0028333 954.142 
0.0015 0.00016667 0.0028333 954.142 
0.0018333 0.00016667 0.0028333 954.142 
0.0021667 0.00016667 0.0028333 954.142 
0.0025 0.00016667 0.0028333 954.142 
0.0028333 0.00016667 0.0028333 954.142 
0.00016667 0.0005 0.0028333 954.142 
0.00016667 0.00083333 0.0028333 954.142 
0.0005 0.0005 0.0028333 954.142 
0.00083333 0.0005 0.0028333 954.142 
0.0005 0.00083333 0.0028333 954.142 
0.00083333 0.00083333 0.0028333 954.142 
0.0011667 0.0005 0.0028333 954.142 
0.0011667 0.00083333 0.0028333 954.142 
0.0015 0.0005 0.0028333 954.142 
0.0015 0.00083333 0.0028333 954.142 
0.0018333 0.0005 0.0028333 954.142 
0.0018333 0.00083333 0.0028333 954.142 
0.0021667 0.0005 0.0028333 954.142 
0.0025 0.0005 0.0028333 954.142 
0.0021667 0.00083333 0.0028333 954.142 
0.0025 0.00083333 0.0028333 954.142 
0.0028333 0.0005 0.0028333 954.142 
0.0028333 0.00083333 0.0028333 954.142 
0.00016667 0.0011667 0.0028333 954.142 
0.0005 0.0011667 0.0028333 954.142 
0.00083333 0.0011667 0.0028333 954.142 
0.0011667 0.0011667 0.0028333 954.142 
0.0015 0.0011667 0.0028333 954.142 
0.0018333 0.0011667 0.0028333 954.142 
0.0021667 0.0011667 0.0028333 954.142 
0.0025 0.0011667 0.0028333 954.142 
0.0028333 0.0011667 0.0028333 954.142 
0.00016667 0.0015 0.0028333 954.142 
0.0005 0.0015 0.0028333 954.142 
0.00083333 0.0015 0.0028333 954.142 
0.0011667 0.0015 0.0028333 954.142 
0.0015 0.0015 0.0028333 954.142 
0.0018333 0.0015 0.0028333 954.142 
0.0021667 0.0015 0.0028333 954.142 
0.0025 0.0015 0.0028333 954.142 
0.0028333 0.0015 0.0028333 954.142 
0.00016667 0.0018333 0.0028333 954.142 
0.0005 0.0018333 0.0028333 954.142 
0.00083333 0.0018333 0.0028333 954.142 
0.0011667 0.0018333 0.0028333 954.142 
0.0015 0.0018333 0.0028333 954.142 
0.0018333 0.0018333 0.0028333 954.142 
0.0021667 0.0018333 0.0028333 954.142 
0.0025 0.0018333 0.0028333 954.142 
0.0028333 0.0018333 0.0028333 954.142 
0.00016667 0.0021667 0.0028333 954.142 
0.00016667 0.0025 0.0028333 954.142 
0.0005 0.0021667 0.0028333 954.142 
0.00083333 0.0021667 0.0028333 954.142 
0.0005 0.0025 0.0028333 954.142 
0.00083333 0.0025 0.0028333 954.142 
0.0011667 0.0021667 0.0028333 954.142 
0.0011667 0.0025 0.0028333 954.142 
0.0015 0.0021667 0.0028333 954.142 
0.0015 0.0025 0.0028333 954.142 
0.0018333 0.0021667 0.0028333 954.142 
0.0018333 0.0025 0.0028333 954.142 
0.0021667 0.0021667 0.0028333 954.142 
0.0025 0.0021667 0.0028333 954.142 
0.0021667 0.0025 0.0028333 954.142 
0.0025 0.0025 0.0028333 954.142 
0.0028333 0.0021667 0.0028333 954.142 
0.0028333 0.0025 0.0028333 954.142 
0.00016667 0.0028333 0.0028333 954.142 
0.0005 0.0028333 0.0028333 954.142 
0.00083333 0.0028333 0.0028333 954.142 
0.0011667 0.0028333 0.0028333 954.142 
0.0015 0.0028333 0.0028333 954.142 
0.0018333 0.0028333 0.0028333 954.142 
0.0021667 0.0028333 0.0028333 954.142 
0.0025 0.0028333 0.0028333 954.142 
0.0028333 0.0028333 0.0028333 954.142 
0.00016667 0.00016667 0.0031667 949.267 
0.0005 0.00016667 0.0031667 949.267 
0.00083333 0.00016667 0.0031667 949.267 
0.0011667 0.00016667 0.0031667 949.267 
0.0015 0.00016667 0.0031667 949.267 
0.0018333 0.00016667 0.0031667 949.267 
0.0021667 0.00016667 0.0031667 949.267 
0.0025 0.00016667 0.0031667 949.267 
0.0028333 0.00016667 0.0031667 949.267 
0.00016667 0.0005 0.0031667 949.267 
0.00016667 0.00083333 0.0031667 949.267 
0.0005 0.0005 0.0031667 949.267 
0.00083333 0.0005 0.0031667 949.267 
0.0005 0.00083333 0.0031667 949.267 
0.00083333 0.00083333 0.0031667 949.267 
0.0011667 0.0005 0.0031667 949.267 
0.0011667 0.00083333 0.0031667 949.267 
0.0015 0.0005 0.0031667 949.267 
0.0015 0.00083333 0.0031667 949.267 
0.0018333 0.0005 0.0031667 949.267 
0.0018333 0.00083333 0.0031667 949.267 
0.0021667 0.0005 0.0031667 949.267 
0.0025 0.0005 0.0031667 949.267 
0.0021667 0.00083333 0.0031667 949.267 
0.0025 0.00083333 0.0031667 949.267 
0.0028333 0.0005 0.0031667 949.267 
0.0028333 0.00083333 0.0031667 949.267 
0.00016667 0.0011667 0.0031667 949.267 
0.0005 0.0011667 0.0031667 949.267 
0.00083333 0.0011667 0.0031667 949.267 
0.0011667 0.0011667 0.0031667 949.267 
0.0015 0.0011667 0.0031667 949.267 
0.0018333 0.0011667 0.0031667 949.267 
0.0021667 0.0011667 0.0031667 949.267 
0.0025 0.0011667 0.0031667 949.267 
0.0028333 0.0011667 0.0031667 949.267 
0.00016667 0.0015 0.0031667 949.267 
0.0005 0.0015 0.0031667 949.267 
0.00083333 0.0015 0.0031667 949.267 
0.0011667 0.0015 0.0031667 949.267 
0.0015 0.0015 0.0031667 949.267 
0.0018333 0.0015 0.0031667 949.267 
0.0021667 0.0015 0.0031667 949.267 
0.0025 0.0015 0.0031667 949.267 
0.0028333 0.0015 0.0031667 949.267 
0.00016667 0.0018333 0.0031667 949.267 
0.0005 0.0018333 0.0031667 949.267 
0.00083333 0.0018333 0.0031667 949.267 
0.0011667 0.0018333 0.0031667 949.267 
0.0015 0.0018333 0.0031667 949.267 
0.0018333 0.0018333 0.0031667 949.267 
0.0021667 0.0018333 0.0031667 949.267 
0.0025 0.0018333 0.0031667 949.267 
0.0028333 0.0018333 0.0031667 949.267 
0.00016667 0.0021667 0.0031667 949.267 
0.00016667 0.0025 0.0031667 949.267 
0.0005 0.0021667 0.0031667 949.267 
0.00083333 0.0021667 0.0031667 949.267 
0.0005 0.0025 0.0031667 949.267 
0.00083333 0.0025 0.0031667 949.267 
0.0011667 0.0021667 0.0031667 949.267 
0.0011667 0.0025 0.0031667 949.267 
0.0015 0.0021667 0.0031667 949.267 
0.0015 0.0025 0.0031667 949.267 
0.0018333 0.0021667 0.0031667 949.267 
0.0018333 0.0025 0.0031667 949.267 
0.0021667 0.0021667 0.0031667 949.267 
0.0025 0.0021667 0.0031667 949.267 
0.0021667 0.0025 0.0031667 949.267 
0.0025 0.0025 0.0031667 949.267 
0.0028333 0.0021667 0.0031667 949.267 
0.0028333 0.0025 0.0031667 949.267 
0.00016667 0.0028333 0.0031667 949.267 
0.0005 0.0028333 0.0031667 949.267 
0.00083333 0.0028333 0.0031667 949.267 
0.0011667 0.0028333 0.0031667 949.267 
0.0015 0.0028333 0.0031667 949.267 
0.0018333 0.0028333 0.0031667 949.267 
0.0021667 0.0028333 0.0031667 949.267 
0.0025 0.0028333 0.0031667 949.267 
0.0028333 0.0028333 0.0031667 949.267 
0.00016667 0.00016667 0.0035 943.803 
0.0005 0.00016667 0.0035 943.803 
0.00083333 0.00016667 0.0035 943.803 