# Probe 0 (0.0015 0.0015 0)
# Probe 1 (0.0015 0.0015 0.002)
# Probe 2 (0.0015 0.0015 0.004)
# Probe 3 (0.0015 0.0015 0.006)
# Probe 4 (0.0015 0.0015 0.008)
# Probe 5 (0.0015 0.0015 0.01)
# Probe 6 (0.0015 0.0015 0.012)
# Probe 7 (0.0015 0.0015 0.014)
# Probe 8 (0.0015 0.0015 0.016)
# Probe 9 (0.0015 0.0015 0.018)
# Probe 10 (0.0015 0.0015 0.02)
# Time        0             1             2             3             4             5             6             7             8             9             10           
50            0.000579209   0.000579209   0.000579209   0.000579209   0.000579209   0.000579209   0.000579209   0.000579209   0.000579209   0.000579209   0.000579209  
100           0.000579209   0.000579209   0.000579209   0.000579209   0.000579209   0.000579209   0.000579209   0.000579209   0.000579209   0.000579209   0.000579209  
150           0.000579209   0.000579209   0.000579209   0.000579209   0.000579209   0.000579209   0.000579209   0.000579209   0.000579209   0.000579209   0.000579209  
200           0.000579209   0.000579209   0.000579209   0.000579209   0.000579209   0.000579209   0.000579209   0.000579209   0.000579209   0.000579209   0.000579209  
250           0.000579209   0.000579209   0.000579209   0.000579209   0.000579209   0.000579209   0.000579209   0.000579209   0.000579209   0.000579209   0.000579209  
300           0.000579209   0.000579209   0.000579209   0.000579209   0.000579209   0.000579209   0.000579209   0.000579209   0.000579209   0.000579209   0.000579209  
350           0.000579209   0.000579209   0.000579209   0.000579209   0.000579209   0.000579209   0.000579209   0.000579209   0.000579209   0.000579209   0.000579209  
400           0.000579209   0.000579209   0.000579209   0.000579209   0.000579209   0.000579209   0.000579209   0.000579209   0.000579209   0.000579209   0.000579209  
450           0.000579209   0.000579209   0.000579209   0.000579209   0.000579209   0.000579209   0.000579209   0.000579209   0.000579209   0.000579209   0.000579209  
500           0.000579209   0.000579209   0.000579209   0.000579209   0.000579209   0.000579209   0.000579209   0.000579209   0.000579209   0.000579209   0.000579209  
550           0.000579209   0.000579209   0.000579209   0.000579209   0.000579209   0.000579209   0.000579209   0.000579209   0.000579209   0.000579209   0.000579209  
600           0.000579209   0.000579209   0.000579209   0.000579209   0.000579209   0.000579209   0.000579209   0.000579209   0.000579209   0.000579209   0.000579209  
650           0.000579209   0.000579209   0.000579209   0.000579209   0.000579209   0.000579209   0.000579209   0.000579209   0.000579209   0.000579209   0.000579209  
700           0.000579209   0.000579209   0.000579209   0.000579209   0.000579209   0.000579209   0.000579209   0.000579209   0.000579209   0.000579209   0.000579209  
750           0.000579209   0.000579209   0.000579209   0.000579209   0.000579209   0.000579209   0.000579209   0.000579209   0.000579209   0.000579209   0.000579209  
800           0.000579209   0.000579209   0.000579209   0.000579209   0.000579209   0.000579209   0.000579209   0.000579209   0.000579209   0.000579209   0.000579209  
850           0.000579209   0.000579209   0.000579209   0.000579209   0.000579209   0.000579209   0.000579209   0.000579209   0.000579209   0.000579209   0.000579209  
900           0.000579209   0.000579209   0.000579209   0.000579209   0.000579209   0.000579209   0.000579209   0.000579209   0.000579209   0.000579209   0.000579209  
950           0.000579209   0.000579209   0.000579209   0.000579209   0.000579209   0.000579209   0.000579209   0.000579209   0.000579209   0.000579209   0.000579209  
1000          0.000579209   0.000579209   0.000579209   0.000579209   0.000579209   0.000579209   0.000579209   0.000579209   0.000579209   0.000579209   0.000579209  
1050          0.000579209   0.000579209   0.000579209   0.000579209   0.000579209   0.000579209   0.000579209   0.000579209   0.000579209   0.000579209   0.000579209  
1100          0.000579209   0.000579209   0.000579209   0.000579209   0.000579209   0.000579209   0.000579209   0.000579209   0.000579209   0.000579209   0.000579209  
1150          0.000579209   0.000579209   0.000579209   0.000579209   0.000579209   0.000579209   0.000579209   0.000579209   0.000579209   0.000579209   0.000579209  
1200          0.000579209   0.000579209   0.000579209   0.000579209   0.000579209   0.000579209   0.000579209   0.000579209   0.000579209   0.000579209   0.000579209  
1250          0.000579209   0.000579209   0.000579209   0.000579209   0.000579209   0.000579209   0.000579209   0.000579209   0.000579209   0.000579209   0.000579209  
1300          0.000579209   0.000579209   0.000579209   0.000579209   0.000579209   0.000579209   0.000579209   0.000579209   0.000579209   0.000579209   0.000579209  
1350          0.000579209   0.000579209   0.000579209   0.000579209   0.000579209   0.000579209   0.000579209   0.000579209   0.000579209   0.000579209   0.000579209  
1400          0.000579209   0.000579209   0.000579209   0.000579209   0.000579209   0.000579209   0.000579209   0.000579209   0.000579209   0.000579209   0.000579209  
1450          0.000579209   0.000579209   0.000579209   0.000579209   0.000579209   0.000579209   0.000579209   0.000579209   0.000579209   0.000579209   0.000579209  
1500          0.000579209   0.000579209   0.000579209   0.000579209   0.000579209   0.000579209   0.000579209   0.000579209   0.000579209   0.000579209   0.000579209  
1550          0.000579209   0.000579209   0.000579209   0.000579209   0.000579209   0.000579209   0.000579209   0.000579209   0.000579209   0.000579209   0.000579209  
1600          0.000579209   0.000579209   0.000579209   0.000579209   0.000579209   0.000579209   0.000579209   0.000579209   0.000579209   0.000579209   0.000579209  
1650          0.000579209   0.000579209   0.000579209   0.000579209   0.000579209   0.000579209   0.000579209   0.000579209   0.000579209   0.000579209   0.000579209  
1700          0.000579209   0.000579209   0.000579209   0.000579209   0.000579209   0.000579209   0.000579209   0.000579209   0.000579209   0.000579209   0.000579209  
1750          0.000579209   0.000579209   0.000579209   0.000579209   0.000579209   0.000579209   0.000579209   0.000579209   0.000579209   0.000579209   0.000579209  
1800          0.000579209   0.000579209   0.000579209   0.000579209   0.000579209   0.000579209   0.000579209   0.000579209   0.000579209   0.000579209   0.000579209  
1850          0.000579209   0.000579209   0.000579209   0.000579209   0.000579209   0.000579209   0.000579209   0.000579209   0.000579209   0.000579209   0.000579209  
1900          0.000579209   0.000579209   0.000579209   0.000579209   0.000579209   0.000579209   0.000579209   0.000579209   0.000579209   0.000579209   0.000579209  
1950          0.000579209   0.000579209   0.000579209   0.000579209   0.000579209   0.000579209   0.000579209   0.000579209   0.000579209   0.000579209   0.000579209  
2000          0.000579209   0.000579209   0.000579209   0.000579209   0.000579209   0.000579209   0.000579209   0.000579209   0.000579209   0.000579209   0.000579209  
2050          0.000579209   0.000579209   0.000579209   0.000579209   0.000579209   0.000579209   0.000579209   0.000579209   0.000579209   0.000579209   0.000579209  
2100          0.000579209   0.000579209   0.000579209   0.000579209   0.000579209   0.000579209   0.000579209   0.000579209   0.000579209   0.000579209   0.000579209  
2150          0.000579209   0.000579209   0.000579209   0.000579209   0.000579209   0.000579209   0.000579209   0.000579209   0.000579209   0.000579209   0.000579209  
2200          0.000579209   0.000579209   0.000579209   0.000579209   0.000579209   0.000579209   0.000579209   0.000579209   0.000579209   0.000579209   0.000579209  
2250          0.000579209   0.000579209   0.000579209   0.000579209   0.000579209   0.000579209   0.000579209   0.000579209   0.000579209   0.000579209   0.000579209  
2300          0.000579209   0.000579209   0.000579209   0.000579209   0.000579209   0.000579209   0.000579209   0.000579209   0.000579209   0.000579209   0.000579209  
2350          0.000579209   0.000579209   0.000579209   0.000579209   0.000579209   0.000579209   0.000579209   0.000579209   0.000579209   0.000579209   0.000579209  
2400          0.000579209   0.000579209   0.000579209   0.000579209   0.000579209   0.000579209   0.000579209   0.000579209   0.000579209   0.000579209   0.000579209  
2450          0.000579209   0.000579209   0.000579209   0.000579209   0.000579209   0.000579209   0.000579209   0.000579209   0.000579209   0.000579209   0.000579209  
2500          0.000579209   0.000579209   0.000579209   0.000579209   0.000579209   0.000579209   0.000579209   0.000579209   0.000579209   0.000579209   0.000579209  
2550          0.000579209   0.000579209   0.000579209   0.000579209   0.000579209   0.000579209   0.000579209   0.000579209   0.000579209   0.000579209   0.000579209  
2600          0.000579209   0.000579209   0.000579209   0.000579209   0.000579209   0.000579209   0.000579209   0.000579209   0.000579209   0.000579209   0.000579209  
2650          0.000579209   0.000579209   0.000579209   0.000579209   0.000579209   0.000579209   0.000579209   0.000579209   0.000579209   0.000579209   0.000579209  
2700          0.000579209   0.000579209   0.000579209   0.000579209   0.000579209   0.000579209   0.000579209   0.000579209   0.000579209   0.000579209   0.000579209  
2750          0.000579209   0.000579209   0.000579209   0.000579209   0.000579209   0.000579209   0.000579209   0.000579209   0.000579209   0.000579209   0.000579209  
2800          0.000579209   0.000579209   0.000579209   0.000579209   0.000579209   0.000579209   0.000579209   0.000579209   0.000579209   0.000579209   0.000579209  
2850          0.000579209   0.000579209   0.000579209   0.000579209   0.000579209   0.000579209   0.000579209   0.000579209   0.000579209   0.000579209   0.000579209  
2900          0.000579209   0.000579209   0.000579209   0.000579209   0.000579209   0.000579209   0.000579209   0.000579209   0.000579209   0.000579209   0.000579209  
2950          0.000579209   0.000579209   0.000579209   0.000579209   0.000579209   0.000579209   0.000579209   0.000579209   0.000579209   0.000579209   0.000579209  
3000          0.000579209   0.000579209   0.000579209   0.000579209   0.000579209   0.000579209   0.000579209   0.000579209   0.000579209   0.000579209   0.000579209  
3050          0.000579209   0.000579209   0.000579209   0.000579209   0.000579209   0.000579209   0.000579209   0.000579209   0.000579209   0.000579209   0.000579209  
3100          0.000579209   0.000579209   0.000579209   0.000579209   0.000579209   0.000579209   0.000579209   0.000579209   0.000579209   0.000579209   0.000579209  
3150          0.000579209   0.000579209   0.000579209   0.000579209   0.000579209   0.000579209   0.000579209   0.000579209   0.000579209   0.000579209   0.000579209  
3200          0.000579209   0.000579209   0.000579209   0.000579209   0.000579209   0.000579209   0.000579209   0.000579209   0.000579209   0.000579209   0.000579209  
3250          0.000579209   0.000579209   0.000579209   0.000579209   0.000579209   0.000579209   0.000579209   0.000579209   0.000579209   0.000579209   0.000579209  
3300          0.000579209   0.000579209   0.000579209   0.000579209   0.000579209   0.000579209   0.000579209   0.000579209   0.000579209   0.000579209   0.000579209  
3350          0.000579209   0.000579209   0.000579209   0.000579209   0.000579209   0.000579209   0.000579209   0.000579209   0.000579209   0.000579209   0.000579209  
3400          0.000579209   0.000579209   0.000579209   0.000579209   0.000579209   0.000579209   0.000579209   0.000579209   0.000579209   0.000579209   0.000579209  
3450          0.000579209   0.000579209   0.000579209   0.000579209   0.000579209   0.000579209   0.000579209   0.000579209   0.000579209   0.000579209   0.000579209  
3500          0.000579209   0.000579209   0.000579209   0.000579209   0.000579209   0.000579209   0.000579209   0.000579209   0.000579209   0.000579209   0.000579209  
3550          0.000579209   0.000579209   0.000579209   0.000579209   0.000579209   0.000579209   0.000579209   0.000579209   0.000579209   0.000579209   0.000579209  
3600          0.000579209   0.000579209   0.000579209   0.000579209   0.000579209   0.000579209   0.000579209   0.000579209   0.000579209   0.000579209   0.000579209  
3650          0.000579209   0.000579209   0.000579209   0.000579209   0.000579209   0.000579209   0.000579209   0.000579209   0.000579209   0.000579209   0.000579209  
3700          0.000579209   0.000579209   0.000579209   0.000579209   0.000579209   0.000579209   0.000579209   0.000579209   0.000579209   0.000579209   0.000579209  
3750          0.000579209   0.000579209   0.000579209   0.000579209   0.000579209   0.000579209   0.000579209   0.000579209   0.000579209   0.000579209   0.000579209  
3800          0.000579209   0.000579209   0.000579209   0.000579209   0.000579209   0.000579209   0.000579209   0.000579209   0.000579209   0.000579209   0.000579209  
3850          0.000579209   0.000579209   0.000579209   0.000579209   0.000579209   0.000579209   0.000579209   0.000579209   0.000579209   0.000579209   0.000579209  
3900          0.000579209   0.000579209   0.000579209   0.000579209   0.000579209   0.000579209   0.000579209   0.000579209   0.000579209   0.000579209   0.000579209  
3950          0.000579209   0.000579209   0.000579209   0.000579209   0.000579209   0.000579209   0.000579209   0.000579209   0.000579209   0.000579209   0.000579209  
4000          0.000579209   0.000579209   0.000579209   0.000579209   0.000579209   0.000579209   0.000579209   0.000579209   0.000579209   0.000579209   0.000579209  
4050          0.000579209   0.000579209   0.000579209   0.000579209   0.000579209   0.000579209   0.000579209   0.000579209   0.000579209   0.000579209   0.000579209  
4100          0.000579209   0.000579209   0.000579209   0.000579209   0.000579209   0.000579209   0.000579209   0.000579209   0.000579209   0.000579209   0.000579209  
4150          0.000579209   0.000579209   0.000579209   0.000579209   0.000579209   0.000579209   0.000579209   0.000579209   0.000579209   0.000579209   0.000579209  
4200          0.000579209   0.000579209   0.000579209   0.000579209   0.000579209   0.000579209   0.000579209   0.000579209   0.000579209   0.000579209   0.000579209  
4250          0.000579209   0.000579209   0.000579209   0.000579209   0.000579209   0.000579209   0.000579209   0.000579209   0.000579209   0.000579209   0.000579209  
4300          0.000579209   0.000579209   0.000579209   0.000579209   0.000579209   0.000579209   0.000579209   0.000579209   0.000579209   0.000579209   0.000579209  
4350          0.000579209   0.000579209   0.000579209   0.000579209   0.000579209   0.000579209   0.000579209   0.000579209   0.000579209   0.000579209   0.000579209  
4400          0.000579209   0.000579209   0.000579209   0.000579209   0.000579209   0.000579209   0.000579209   0.000579209   0.000579209   0.000579209   0.000579209  
4450          0.000579209   0.000579209   0.000579209   0.000579209   0.000579209   0.000579209   0.000579209   0.000579209   0.000579209   0.000579209   0.000579209  
4500          0.000579209   0.000579209   0.000579209   0.000579209   0.000579209   0.000579209   0.000579209   0.000579209   0.000579209   0.000579209   0.000579209  
4550          0.000579209   0.000579209   0.000579209   0.000579209   0.000579209   0.000579209   0.000579209   0.000579209   0.000579209   0.000579209   0.000579209  
4600          0.000579209   0.000579209   0.000579209   0.000579209   0.000579209   0.000579209   0.000579209   0.000579209   0.000579209   0.000579209   0.000579209  
4650          0.000579209   0.000579209   0.000579209   0.000579209   0.000579209   0.000579209   0.000579209   0.000579209   0.000579209   0.000579209   0.000579209  
4700          0.000579209   0.000579209   0.000579209   0.000579209   0.000579209   0.000579209   0.000579209   0.000579209   0.000579209   0.000579209   0.000579209  
4750          0.000579209   0.000579209   0.000579209   0.000579209   0.000579209   0.000579209   0.000579209   0.000579209   0.000579209   0.000579209   0.000579209  
4800          0.000579209   0.000579209   0.000579209   0.000579209   0.000579209   0.000579209   0.000579209   0.000579209   0.000579209   0.000579209   0.000579209  
4850          0.000579209   0.000579209   0.000579209   0.000579209   0.000579209   0.000579209   0.000579209   0.000579209   0.000579209   0.000579209   0.000579209  
4900          0.000579209   0.000579209   0.000579209   0.000579209   0.000579209   0.000579209   0.000579209   0.000579209   0.000579209   0.000579209   0.000579209  
4950          0.000579209   0.000579209   0.000579209   0.000579209   0.000579209   0.000579209   0.000579209   0.000579209   0.000579209   0.000579209   0.000579209  
5000          0.000579209   0.000579209   0.000579209   0.000579209   0.000579209   0.000579209   0.000579209   0.000579209   0.000579209   0.000579209   0.000579209  
