# Probe 0 (0.0015 0.0015 0)
# Probe 1 (0.0015 0.0015 0.002)
# Probe 2 (0.0015 0.0015 0.004)
# Probe 3 (0.0015 0.0015 0.006)
# Probe 4 (0.0015 0.0015 0.008)
# Probe 5 (0.0015 0.0015 0.01)
# Probe 6 (0.0015 0.0015 0.012)
# Probe 7 (0.0015 0.0015 0.014)
# Probe 8 (0.0015 0.0015 0.016)
# Probe 9 (0.0015 0.0015 0.018)
# Probe 10 (0.0015 0.0015 0.02)
# Time        0             1             2             3             4             5             6             7             8             9             10           
50            (7.48899 7.48899 -4.71498e+07) (-11.8957 -11.8957 -2.7095e+07) (-9.39221 -9.39221 -1.12013e+07) (5.85454 5.85454 -3.98467e+06) (-1.47891 -1.47891 -1.15403e+06) (-9.30173 -9.30173 -162887) (-3.43353 -3.43353 27482.4) (-0.912071 -0.912071 -336330) (-2.25494 -2.25494 -1.51936e+06) (1.84883 1.84883 -4.30674e+06) (2.88584 2.88584 -9.95478e+06)
100           (-35.6533 -35.6533 -3.60649e+07) (-45.4925 -45.4925 -2.67432e+07) (5.36989 5.36989 -1.62246e+07) (16.0988 16.0988 -7.95907e+06) (11.4634 11.4634 -3.39693e+06) (18.3833 18.3833 -1.35005e+06) (12.0262 12.0262 -734937) (4.52897 4.52897 -1.06841e+06) (9.22473 9.22473 -2.32698e+06) (5.93687 5.93687 -4.70059e+06) (2.25461 2.25461 -8.16073e+06)
150           (31.2896 31.2896 -3.03133e+07) (41.2708 41.2708 -2.36972e+07) (36.6081 36.6081 -1.75359e+07) (5.70235 5.70235 -1.0749e+07) (-5.66295 -5.66295 -5.70366e+06) (-4.48661 -4.48661 -2.87558e+06) (-5.88603 -5.88603 -1.7512e+06) (-8.24758 -8.24758 -1.83522e+06) (-9.18428 -9.18428 -2.88072e+06) (-9.8893 -9.8893 -4.74525e+06) (2.00572 2.00572 -7.08073e+06)
200           (24.2476 24.2476 -2.6791e+07) (-0.348546 -0.348546 -2.11522e+07) (24.969 24.969 -1.72306e+07) (4.76275 4.76275 -1.21974e+07) (-10.1855 -10.1855 -7.58175e+06) (-8.80578 -8.80578 -4.43342e+06) (-2.53267 -2.53267 -2.87487e+06) (-4.67179 -4.67179 -2.60917e+06) (-5.70904 -5.70904 -3.31944e+06) (-2.45948 -2.45948 -4.71383e+06) (1.14985 1.14985 -6.36727e+06)
250           (-50.2372 -50.2372 -2.43773e+07) (-68.6558 -68.6558 -1.9202e+07) (-50.3819 -50.3819 -1.64937e+07) (-25.2403 -25.2403 -1.27702e+07) (3.62314 3.62314 -8.89683e+06) (20.5034 20.5034 -5.81452e+06) (25.8651 25.8651 -3.98794e+06) (24.3242 24.3242 -3.37829e+06) (15.3841 15.3841 -3.72584e+06) (13.015 13.015 -4.70424e+06) (4.6288 4.6288 -5.8881e+06)
300           (13.5255 13.5255 -2.26082e+07) (1.30467 1.30467 -1.76893e+07) (14.3514 14.3514 -1.57105e+07) (1.11263 1.11263 -1.28902e+07) (-8.02043 -8.02043 -9.73414e+06) (-8.69328 -8.69328 -6.928e+06) (-5.08552 -5.08552 -5.00498e+06) (-2.00925 -2.00925 -4.12029e+06) (-0.752097 -0.752097 -4.13041e+06) (-2.819 -2.819 -4.74595e+06) (10.8877 10.8877 -5.57616e+06)
350           (5.86809 5.86809 -2.12533e+07) (54.0597 54.0597 -1.64909e+07) (40.0226 40.0226 -1.49875e+07) (38.5464 38.5464 -1.27968e+07) (24.847 24.847 -1.02334e+07) (8.92769 8.92769 -7.77148e+06) (-3.13285 -3.13285 -5.88097e+06) (-9.46031 -9.46031 -4.81179e+06) (-10.4837 -10.4837 -4.53742e+06) (-11.7147 -11.7147 -4.84199e+06) (-6.25691 -6.25691 -5.39177e+06)
400           (4.451 4.451 -2.01832e+07) (45.6806 45.6806 -1.55231e+07) (23.8889 23.8889 -1.43477e+07) (27.9525 27.9525 -1.26086e+07) (20.7351 20.7351 -1.05118e+07) (10.0518 10.0518 -8.38572e+06) (1.40071 1.40071 -6.60395e+06) (-3.29596 -3.29596 -5.4355e+06) (-6.19213 -6.19213 -4.94044e+06) (-9.48297 -9.48297 -4.98596e+06) (-4.03337 -4.03337 -5.30764e+06)
450           (-94.5808 -94.5808 -1.93181e+07) (-124.291 -124.291 -1.47284e+07) (-106.052 -106.052 -1.37887e+07) (-74.9078 -74.9078 -1.23824e+07) (-28.9081 -28.9081 -1.06495e+07) (18.0741 18.0741 -8.82099e+06) (48.9637 48.9637 -7.1829e+06) (56.4044 56.4044 -5.98288e+06) (48.0648 48.0648 -5.33022e+06) (28.9095 28.9095 -5.16731e+06) (2.44523 2.44523 -5.30373e+06)
500           (82.6828 82.6828 -1.86062e+07) (77.4783 77.4783 -1.40658e+07) (76.8396 76.8396 -1.3301e+07) (51.2261 51.2261 -1.21458e+07) (20.7922 20.7922 -1.06981e+07) (-7.81896 -7.81896 -9.12332e+06) (-29.6515 -29.6515 -7.63773e+06) (-40.5708 -40.5708 -6.45312e+06) (-34.8708 -34.8708 -5.699e+06) (-17.7347 -17.7347 -5.37589e+06) (-15.1717 -15.1717 -5.36325e+06)
550           (67.774 67.774 -1.80113e+07) (69.3486 69.3486 -1.35059e+07) (70.6997 70.6997 -1.28739e+07) (52.259 52.259 -1.19119e+07) (26.8485 26.8485 -1.06897e+07) (1.3008 1.3008 -9.32802e+06) (-19.5581 -19.5581 -7.99031e+06) (-31.9262 -31.9262 -6.85108e+06) (-30.6483 -30.6483 -6.04146e+06) (-18.2587 -18.2587 -5.60184e+06) (-19.1657 -19.1657 -5.47231e+06)
600           (54.606 54.606 -1.75077e+07) (56.8404 56.8404 -1.30275e+07) (59.5683 59.5683 -1.24985e+07) (46.3459 46.3459 -1.16875e+07) (27.1508 27.1508 -1.06456e+07) (6.53581 6.53581 -9.462e+06) (-11.5604 -11.5604 -8.26123e+06) (-23.4551 -23.4551 -7.18466e+06) (-25.0363 -25.0363 -6.35497e+06) (-17.6079 -17.6079 -5.83677e+06) (-20.3619 -20.3619 -5.61915e+06)
650           (43.1254 43.1254 -1.70762e+07) (45.5303 45.5303 -1.26146e+07) (49.0162 49.0162 -1.21666e+07) (39.6452 39.6452 -1.14756e+07) (25.5383 25.5383 -1.05794e+07) (9.56028 9.56028 -9.54498e+06) (-5.4381 -5.4381 -8.46813e+06) (-16.237 -16.237 -7.46283e+06) (-19.5017 -19.5017 -6.63909e+06) (-15.7676 -15.7676 -6.07395e+06) (-19.902 -19.902 -5.79363e+06)
700           (33.2993 33.2993 -1.67028e+07) (35.6149 35.6149 -1.22549e+07) (39.4663 39.4663 -1.18716e+07) (32.9192 32.9192 -1.12773e+07) (22.7932 22.7932 -1.05002e+07) (10.7816 10.7816 -9.5914e+06) (-1.21993 -1.21993 -8.62544e+06) (-10.6099 -10.6099 -7.69443e+06) (-14.6858 -14.6858 -6.89491e+06) (-13.4094 -13.4094 -6.30829e+06) (-18.1095 -18.1095 -5.98709e+06)
750           (25.2389 25.2389 -1.63768e+07) (27.3788 27.3788 -1.1939e+07) (31.3 31.3 -1.1608e+07) (26.7756 26.7756 -1.10927e+07) (19.6319 19.6319 -1.04141e+07) (10.7864 10.7864 -9.61181e+06) (1.42039 1.42039 -8.74463e+06) (-6.49013 -6.49013 -7.88756e+06) (-10.8234 -10.8234 -7.12444e+06) (-11.0595 -11.0595 -6.53612e+06) (-15.5133 -15.5133 -6.19223e+06)
800           (-52.5356 -52.5356 -1.60897e+07) (-53.4645 -53.4645 -1.16596e+07) (-43.9555 -43.9555 -1.13714e+07) (-37.3893 -37.3893 -1.09213e+07) (-25.3926 -25.3926 -1.03251e+07) (-11.4453 -11.4453 -9.61392e+06) (3.01373 3.01373 -8.83477e+06) (16.3977 16.3977 -8.0493e+06) (26.8072 26.8072 -7.33018e+06) (33.3523 33.3523 -6.75481e+06) (35.1948 35.1948 -6.40296e+06)
850           (-39.4514 -39.4514 -1.58352e+07) (-39.3301 -39.3301 -1.14107e+07) (-33.1516 -33.1516 -1.11582e+07) (-28.6677 -28.6677 -1.07625e+07) (-20.1887 -20.1887 -1.0236e+07) (-10.0988 -10.0988 -9.60342e+06) (0.71168 0.71168 -8.90283e+06) (11.2712 11.2712 -8.18554e+06) (20.2016 20.2016 -7.51471e+06) (26.4399 26.4399 -6.96294e+06) (31.6845 31.6845 -6.61456e+06)
900           (8.38542 8.38542 -1.56085e+07) (12.546 12.546 -1.11877e+07) (11.2742 11.2742 -1.09651e+07) (10.1207 10.1207 -1.06155e+07) (7.78056 7.78056 -1.01486e+07) (4.30645 4.30645 -9.58441e+06) (0.0767354 0.0767354 -8.95425e+06) (-4.14518 -4.14518 -8.30132e+06) (-7.01241 -7.01241 -7.68066e+06) (-7.11758 -7.11758 -7.15955e+06) (-4.5612 -4.5612 -6.82295e+06)
950           (6.4032 6.4032 -1.5405e+07) (9.86033 9.86033 -1.09875e+07) (8.86487 8.86487 -1.07901e+07) (8.25299 8.25299 -1.04798e+07) (6.61473 6.61473 -1.00643e+07) (4.05888 4.05888 -9.5599e+06) (0.796673 0.796673 -8.99288e+06) (-2.73056 -2.73056 -8.40006e+06) (-5.58855 -5.58855 -7.82984e+06) (-6.81486 -6.81486 -7.34411e+06) (-6.84169 -6.84169 -7.02613e+06)
1000          (5.67204 5.67204 -1.52217e+07) (9.09013 9.09013 -1.08066e+07) (8.34189 8.34189 -1.06309e+07) (7.89681 7.89681 -1.03546e+07) (6.61148 6.61148 -9.98375e+06) (4.53647 4.53647 -9.53214e+06) (1.76962 1.76962 -9.022e+06) (-1.43075 -1.43075 -8.48517e+06) (-4.42971 -4.42971 -7.96447e+06) (-6.72927 -6.72927 -7.51663e+06) (-9.05106 -9.05106 -7.22152e+06)
1050          (5.7308 5.7308 -1.5056e+07) (9.01212 9.01212 -1.06427e+07) (8.51499 8.51499 -1.04858e+07) (8.23178 8.23178 -1.0239e+07) (7.14699 7.14699 -9.90749e+06) (5.29917 5.29917 -9.50277e+06) (2.74854 2.74854 -9.04406e+06) (-0.354136 -0.354136 -8.55919e+06) (-3.56065 -3.56065 -8.08632e+06) (-6.76097 -6.76097 -7.67731e+06) (-10.8534 -10.8534 -7.40764e+06)
1100          (6.05411 6.05411 -1.49056e+07) (9.2823 9.2823 -1.04938e+07) (9.05173 9.05173 -1.03533e+07) (8.86748 8.86748 -1.01325e+07) (7.89835 7.89835 -9.83575e+06) (6.16513 6.16513 -9.47297e+06) (3.69206 3.69206 -9.06091e+06) (0.563926 0.563926 -8.62416e+06) (-2.87894 -2.87894 -8.1969e+06) (-6.81398 -6.81398 -7.82652e+06) (-12.2123 -12.2123 -7.58358e+06)
1150          (-4.45446 -4.45446 -1.47689e+07) (1.21459 1.21459 -1.03582e+07) (0.509154 0.509154 -1.02322e+07) (1.41558 1.41558 -1.00345e+07) (2.07713 2.07713 -9.7687e+06) (2.53141 2.53141 -9.44359e+06) (2.68021 2.68021 -9.07394e+06) (2.40634 2.40634 -8.68165e+06) (1.65228 1.65228 -8.2975e+06) (0.226554 0.226554 -7.96472e+06) (-4.23246 -4.23246 -7.74904e+06)
1200          (1.21163 1.21163 -1.46443e+07) (2.5182 2.5182 -1.02344e+07) (1.73727 1.73727 -1.01212e+07) (1.26259 1.26259 -9.94405e+06) (0.555782 0.555782 -9.70607e+06) (-0.270044 -0.270044 -9.41501e+06) (-1.25055 -1.25055 -9.08404e+06) (-2.41382 -2.41382 -8.73282e+06) (-3.78159 -3.78159 -8.38917e+06) (-5.76765 -5.76765 -8.09252e+06) (-7.93759 -7.93759 -7.90338e+06)
1250          (-4.14167 -4.14167 -1.45306e+07) (1.97926 1.97926 -1.01213e+07) (1.08693 1.08693 -1.00197e+07) (1.77419 1.77419 -9.86096e+06) (2.40836 2.40836 -9.64802e+06) (2.8293 2.8293 -9.38778e+06) (2.96097 2.96097 -9.09209e+06) (2.69261 2.69261 -8.7787e+06) (1.99283 1.99283 -8.47282e+06) (0.191566 0.191566 -8.21045e+06) (-4.95929 -4.95929 -8.04738e+06)
1300          (0.912649 0.912649 -1.44265e+07) (1.69904 1.69904 -1.00179e+07) (0.936963 0.936963 -9.92654e+06) (0.597234 0.597234 -9.78448e+06) (6.76889e-05 6.77063e-05 -9.59422e+06) (-0.683946 -0.683946 -9.36201e+06) (-1.44905 -1.44905 -9.09859e+06) (-2.35036 -2.35036 -8.82005e+06) (-3.46047 -3.46047 -8.5493e+06) (-5.30078 -5.30078 -8.31915e+06) (-7.20664 -7.20664 -8.18059e+06)
1350          (-0.169301 -0.169301 -1.43316e+07) (1.78584 1.78584 -9.9232e+06) (0.612432 0.612432 -9.84117e+06) (-0.16694 -0.16694 -9.7142e+06) (-0.818116 -0.818116 -9.54453e+06) (-1.46298 -1.46298 -9.33786e+06) (-2.13872 -2.13872 -9.10395e+06) (-2.85565 -2.85565 -8.85745e+06) (-3.5867 -3.5867 -8.61923e+06) (-5.15733 -5.15733 -8.41919e+06) (-6.489 -6.489 -8.304e+06)
1400          (-1.93893 -1.93893 -1.42444e+07) (3.21591 3.21591 -9.83658e+06) (4.97582 4.97582 -9.76308e+06) (7.10319 7.10319 -9.64976e+06) (8.60936 8.60936 -9.4988e+06) (9.49954 9.49954 -9.3154e+06) (9.70565 9.70565 -9.10848e+06) (9.01955 9.01955 -8.8914e+06) (7.21537 7.21537 -8.6832e+06) (3.96267 3.96267 -8.51115e+06) (-5.49677 -5.49677 -8.41803e+06)
1450          (-2.31873 -2.31873 -1.41647e+07) (3.22068 3.22068 -9.75714e+06) (4.95474 4.95474 -9.69133e+06) (6.56816 6.56816 -9.59053e+06) (8.00027 8.00027 -9.45667e+06) (8.94976 8.94976 -9.29455e+06) (9.18305 9.18305 -9.11236e+06) (8.56115 8.56115 -8.92231e+06) (6.85716 6.85716 -8.74178e+06) (3.78916 3.78916 -8.59565e+06) (-5.21065 -5.21065 -8.52293e+06)
1500          (-1.84481 -1.84481 -1.40916e+07) (2.71967 2.71967 -9.68438e+06) (4.36033 4.36033 -9.62563e+06) (6.12426 6.12426 -9.53621e+06) (7.43374 7.43374 -9.41795e+06) (8.24774 8.24774 -9.27531e+06) (8.47472 8.47472 -9.11576e+06) (7.92725 7.92725 -8.95052e+06) (6.37233 6.37233 -8.79544e+06) (3.53822 3.53822 -8.67321e+06) (-4.87259 -4.87259 -8.6194e+06)
1550          (-1.97715 -1.97715 -1.40247e+07) (2.63995 2.63995 -9.61768e+06) (4.12481 4.12481 -9.56537e+06) (5.55803 5.55803 -9.48639e+06) (6.78773 6.78773 -9.38243e+06) (7.59107 7.59107 -9.2576e+06) (7.80478 7.80478 -9.1188e+06) (7.30436 7.30436 -8.97629e+06) (5.88719 5.88719 -8.84458e+06) (3.28598 3.28598 -8.74435e+06) (-4.5056 -4.5056 -8.708e+06)
1600          (-1.68818 -1.68818 -1.39634e+07) (2.28836 2.28836 -9.55658e+06) (3.69888 3.69888 -9.51018e+06) (5.14823 5.14823 -9.44073e+06) (6.25671 6.25671 -9.34985e+06) (6.96175 6.96175 -9.24134e+06) (7.16465 7.16465 -9.12154e+06) (6.71552 6.71552 -8.99987e+06) (5.42143 5.42142 -8.88959e+06) (3.03791 3.03791 -8.80956e+06) (-4.15924 -4.15924 -8.7893e+06)
1650          (-1.69311 -1.69311 -1.39072e+07) (2.1642 2.1642 -9.50058e+06) (3.446 3.446 -9.45959e+06) (4.68469 4.68469 -9.3989e+06) (5.71636 5.71636 -9.32001e+06) (6.38564 6.38564 -9.22644e+06) (6.56967 6.56967 -9.12404e+06) (6.15782 6.15782 -9.02145e+06) (4.97845 4.97845 -8.93081e+06) (2.80064 2.80064 -8.8693e+06) (-3.82127 -3.82127 -8.86382e+06)
1700          (-1.50595 -1.50595 -1.38557e+07) (1.91327 1.91327 -9.44929e+06) (3.11921 3.11921 -9.41327e+06) (4.31597 4.31597 -9.36059e+06) (5.24729 5.24729 -9.29268e+06) (5.84302 5.84302 -9.2128e+06) (6.01322 6.01322 -9.12634e+06) (5.63935 5.63935 -9.04122e+06) (4.56288 4.56288 -8.96855e+06) (2.57472 2.57472 -8.92402e+06) (-3.5088 -3.5088 -8.93208e+06)
1750          (-1.46023 -1.46023 -1.38085e+07) (1.77733 1.77733 -9.40231e+06) (2.88204 2.88204 -9.37084e+06) (3.93511 3.93511 -9.32551e+06) (4.79359 4.79359 -9.26767e+06) (5.34724 5.34724 -9.20033e+06) (5.4998 5.4998 -9.12846e+06) (5.15641 5.15641 -9.05933e+06) (4.17513 4.17513 -9.00311e+06) (2.3629 2.3629 -8.9741e+06) (-3.21365 -3.21365 -8.99458e+06)
1800          (-1.33028 -1.33028 -1.37653e+07) (1.5881 1.5881 -9.3593e+06) (2.62101 2.62101 -9.332e+06) (3.61287 3.61287 -9.29342e+06) (4.38985 4.38985 -9.2448e+06) (4.88635 4.88635 -9.18894e+06) (5.02501 5.02501 -9.13042e+06) (4.71138 4.71138 -9.07593e+06) (3.81604 3.81604 -9.03474e+06) (2.16495 2.16495 -9.01992e+06) (-2.94222 -2.94222 -9.05176e+06)
1850          (-1.26997 -1.26997 -1.37258e+07) (1.4582 1.4582 -9.31991e+06) (2.4104 2.4104 -9.29645e+06) (3.29752 3.29752 -9.26405e+06) (4.00932 4.00932 -9.22389e+06) (4.46545 4.46545 -9.17855e+06) (4.58913 4.58913 -9.13225e+06) (4.3009 4.3009 -9.09113e+06) (3.48457 3.48457 -9.06369e+06) (1.98156 1.98156 -9.06184e+06) (-2.6897 -2.6897 -9.10407e+06)
1900          (-1.17455 -1.17455 -1.36896e+07) (1.30896 1.30896 -9.28386e+06) (2.19716 2.19716 -9.26392e+06) (3.02123 3.02123 -9.23719e+06) (3.66657 3.66657 -9.20477e+06) (4.07733 4.07733 -9.16906e+06) (4.18861 4.18861 -9.13395e+06) (3.92458 3.92458 -9.10506e+06) (3.17989 3.17989 -9.09017e+06) (1.81202 1.81202 -9.10017e+06) (-2.45812 -2.45812 -9.15189e+06)
1950          (-1.1149 -1.1149 -1.36564e+07) (1.1922 1.1922 -9.25088e+06) (2.01502 2.01502 -9.23416e+06) (2.75891 2.75891 -9.21263e+06) (3.34804 3.34804 -9.1873e+06) (3.72305 3.72305 -9.16041e+06) (3.82209 3.82209 -9.13552e+06) (3.57943 3.57943 -9.11781e+06) (2.90037 2.90037 -9.1144e+06) (1.65604 1.65604 -9.13522e+06) (-2.24444 -2.24444 -9.19561e+06)
2000          (-1.04208 -1.04208 -1.36261e+07) (1.07106 1.07106 -9.2207e+06) (1.83874 1.83874 -9.20694e+06) (2.52467 2.52467 -9.19017e+06) (3.05938 3.05938 -9.17135e+06) (3.39793 3.39793 -9.15252e+06) (3.48654 3.48654 -9.13699e+06) (3.26396 3.26396 -9.1295e+06) (2.64455 2.64455 -9.13656e+06) (1.51274 1.51274 -9.16725e+06) (-2.04885 -2.04885 -9.23556e+06)
2050          (-0.988721 -0.988721 -1.35984e+07) (0.969262 0.969262 -9.19309e+06) (1.68345 1.68345 -9.18205e+06) (2.306 2.306 -9.16965e+06) (2.79321 2.79321 -9.15677e+06) (3.10127 3.10127 -9.14533e+06) (3.18006 3.18006 -9.13835e+06) (2.97555 2.97555 -9.14019e+06) (2.41066 2.41066 -9.15682e+06) (1.38145 1.38145 -9.19653e+06) (-1.86923 -1.86923 -9.27205e+06)
2100          (-0.931738 -0.931738 -1.3573e+07) (0.869332 0.869332 -9.16785e+06) (1.53685 1.53685 -9.1593e+06) (2.10873 2.10873 -9.15089e+06) (2.55124 2.55124 -9.14346e+06) (2.82978 2.82978 -9.13878e+06) (2.90007 2.90007 -9.13962e+06) (2.71239 2.71239 -9.14999e+06) (2.19711 2.19711 -9.17535e+06) (1.26125 1.26125 -9.22327e+06) (-1.70502 -1.70502 -9.30539e+06)
2150          (-0.886104 -0.886104 -1.35498e+07) (0.782022 0.782022 -9.14477e+06) (1.40553 1.40553 -9.1385e+06) (1.92633 1.92633 -9.13375e+06) (2.32913 2.32913 -9.13131e+06) (2.58214 2.58214 -9.1328e+06) (2.64461 2.64461 -9.14079e+06) (2.47223 2.47223 -9.15895e+06) (2.00225 2.00225 -9.19228e+06) (1.15139 1.15139 -9.24771e+06) (-1.55465 -1.55465 -9.33584e+06)
2200          (8.95115 8.95115 -1.35286e+07) (10.4491 10.4491 -9.12369e+06) (7.18018 7.18018 -9.1195e+06) (5.80178 5.80178 -9.11811e+06) (3.52462 3.52462 -9.12023e+06) (0.625327 0.625327 -9.12737e+06) (-2.67732 -2.67732 -9.14189e+06) (-6.09283 -6.09283 -9.16716e+06) (-9.08874 -9.08874 -9.20777e+06) (-13.9432 -13.9432 -9.27004e+06) (-13.7329 -13.7329 -9.36369e+06)
2250          (-1.47504 -1.47504 -1.35093e+07) (0.0828956 0.0828956 -9.10438e+06) (-2.28331 -2.28331 -9.10211e+06) (-2.7187 -2.7187 -9.10379e+06) (-3.02827 -3.02827 -9.11009e+06) (-3.29377 -3.29377 -9.12239e+06) (-3.28707 -3.28707 -9.14288e+06) (-2.80529 -2.80529 -9.17466e+06) (-1.78002 -1.78002 -9.22191e+06) (-2.7618 -2.7618 -9.29043e+06) (0.336363 0.336363 -9.38905e+06)
2300          (-3.34927 -3.34927 -1.34915e+07) (-1.79832 -1.79832 -9.08679e+06) (4.04784 4.04784 -9.08627e+06) (7.29105 7.29105 -9.09074e+06) (9.3893 9.3893 -9.10085e+06) (11.7548 11.7548 -9.11787e+06) (13.5589 13.5589 -9.14381e+06) (13.8609 13.8609 -9.1815e+06) (12.9733 12.9733 -9.23481e+06) (13.8567 13.8567 -9.30902e+06) (5.17473 5.17473 -9.41226e+06)
2350          (0.964928 0.964928 -1.34754e+07) (-3.11362 -3.11362 -9.07068e+06) (-4.68452 -4.68452 -9.07176e+06) (-5.7413 -5.7413 -9.07881e+06) (-6.40272 -6.40272 -9.09241e+06) (-6.82007 -6.82007 -9.11375e+06) (-6.79174 -6.79174 -9.14467e+06) (-6.1885 -6.1885 -9.18778e+06) (-5.00699 -5.00699 -9.24663e+06) (-3.62671 -3.62671 -9.32604e+06) (-5.45797 -5.45797 -9.43342e+06)
2400          (-2.10737 -2.10737 -1.34606e+07) (-2.23256 -2.23256 -9.05595e+06) (-2.52296 -2.52296 -9.0585e+06) (-2.83617 -2.83617 -9.0679e+06) (-2.97819 -2.97819 -9.0847e+06) (-2.88741 -2.88741 -9.10998e+06) (-2.57252 -2.57252 -9.14546e+06) (-2.05494 -2.05494 -9.19352e+06) (-1.36959 -1.36959 -9.25742e+06) (-0.538582 -0.538582 -9.34157e+06) (0.636924 0.636924 -9.45271e+06)
2450          (-3.96381 -3.96381 -1.34471e+07) (0.604478 0.604478 -9.04254e+06) (3.05587 3.05587 -9.04642e+06) (5.25479 5.25479 -9.05797e+06) (7.30267 7.30267 -9.07768e+06) (8.99195 8.99195 -9.10656e+06) (10.1999 10.1999 -9.14619e+06) (10.7706 10.7706 -9.19876e+06) (10.4916 10.4916 -9.26725e+06) (9.15609 9.15609 -9.35572e+06) (4.69074 4.69074 -9.47036e+06)
2500          (0.773172 0.773172 -1.34347e+07) (-2.69906 -2.69906 -9.03025e+06) (-3.52088 -3.52088 -9.03537e+06) (-4.32122 -4.32122 -9.04888e+06) (-4.91077 -4.91077 -9.07126e+06) (-5.19985 -5.19985 -9.10344e+06) (-5.14405 -5.14405 -9.14686e+06) (-4.70835 -4.70835 -9.20355e+06) (-3.88165 -3.88165 -9.27625e+06) (-2.61641 -2.61641 -9.36866e+06) (-4.18393 -4.18393 -9.48646e+06)
2550          (-1.70651 -1.70651 -1.34235e+07) (-1.72326 -1.72326 -9.01903e+06) (-1.92694 -1.92694 -9.02527e+06) (-2.1555 -2.1555 -9.04058e+06) (-2.25823 -2.25823 -9.0654e+06) (-2.19335 -2.19335 -9.10059e+06) (-1.95689 -1.95689 -9.14748e+06) (-1.56276 -1.56276 -9.20793e+06) (-1.03546 -1.03547 -9.28446e+06) (-0.412745 -0.412746 -9.38048e+06) (0.496003 0.496003 -9.50112e+06)
2600          (12.2526 12.2526 -1.34132e+07) (12.4456 12.4456 -9.00882e+06) (14.7655 14.7655 -9.01607e+06) (16.2745 16.2745 -9.03301e+06) (16.6171 16.6171 -9.06004e+06) (15.7158 15.7158 -9.09797e+06) (13.5292 13.5292 -9.14801e+06) (10.0859 10.0859 -9.2119e+06) (5.51774 5.51774 -9.29192e+06) (-0.137834 -0.137834 -9.39121e+06) (-16.132 -16.132 -9.51454e+06)
2650          (-6.20387 -6.20387 -1.34038e+07) (-3.63995 -3.63995 -8.99947e+06) (-0.209623 -0.209623 -9.00766e+06) (2.44767 2.44767 -9.0261e+06) (4.79193 4.79193 -9.05518e+06) (6.88941 6.88941 -9.09561e+06) (8.58544 8.58544 -9.14855e+06) (9.7184 9.7184 -9.21556e+06) (10.2203 10.2203 -9.29878e+06) (10.0679 10.0679 -9.40106e+06) (4.43046 4.43046 -9.52677e+06)
2700          (10.2948 10.2948 -1.33952e+07) (10.5865 10.5865 -8.99094e+06) (12.0688 12.0688 -8.99999e+06) (12.9169 12.9169 -9.0198e+06) (13.0581 13.0581 -9.05073e+06) (12.3422 12.3422 -9.09345e+06) (10.7026 10.7026 -9.14902e+06) (8.08175 8.08175 -9.21889e+06) (4.54075 4.54075 -9.30502e+06) (0.354874 0.354874 -9.41003e+06) (-12.0512 -12.0512 -9.53793e+06)
2750          (-6.56083 -6.56083 -1.33874e+07) (-3.83133 -3.83133 -8.98316e+06) (-0.0056935 -0.00569354 -8.99298e+06) (3.09861 3.09861 -9.01405e+06) (5.55122 5.55122 -9.04667e+06) (7.34837 7.34837 -9.09149e+06) (8.42418 8.42418 -9.14947e+06) (8.79743 8.79743 -9.22195e+06) (8.38235 8.38235 -9.31073e+06) (7.12271 7.12271 -9.41823e+06) (1.31304 1.31304 -9.54811e+06)
2800          (9.42678 9.42678 -1.33802e+07) (9.41774 9.41774 -8.97603e+06) (10.0054 10.0054 -8.98659e+06) (10.2265 10.2265 -9.0088e+06) (10.1139 10.1139 -9.04297e+06) (9.46056 9.46056 -9.08969e+06) (8.30283 8.30283 -9.14987e+06) (6.50939 6.50939 -9.22473e+06) (4.06765 4.06765 -9.31593e+06) (1.09879 1.09879 -9.4257e+06) (-8.90028 -8.90028 -9.5574e+06)
2850          (-7.03866 -7.03866 -1.33737e+07) (-3.70319 -3.70319 -8.96957e+06) (0.942617 0.942617 -8.98075e+06) (4.58338 4.58338 -9.004e+06) (7.1035 7.1035 -9.03959e+06) (8.56102 8.56102 -9.08806e+06) (8.7789 8.7789 -9.15024e+06) (7.95362 7.95362 -9.22728e+06) (6.2675 6.2675 -9.32069e+06) (3.98828 3.98828 -9.43253e+06) (-1.9744 -1.9744 -9.56588e+06)
2900          (8.95283 8.95283 -1.33677e+07) (8.62374 8.62374 -8.9636e+06) (8.16051 8.16051 -8.97542e+06) (7.7239 7.7239 -8.99964e+06) (7.46052 7.46052 -9.03651e+06) (6.92182 6.92182 -9.08657e+06) (6.3263 6.3263 -9.15058e+06) (5.41832 5.41832 -9.22959e+06) (3.99688 3.99688 -9.32502e+06) (2.00835 2.00835 -9.43875e+06) (-6.09735 -6.09735 -9.57361e+06)
2950          (-6.41272 -6.41272 -1.33623e+07) (-2.87512 -2.87512 -8.95825e+06) (2.55595 2.55595 -8.97057e+06) (6.50421 6.50421 -8.99563e+06) (8.75012 8.75012 -9.0337e+06) (9.68053 9.68053 -9.08522e+06) (8.9447 8.9447 -9.15089e+06) (6.97282 6.97282 -9.23172e+06) (4.25638 4.25638 -9.32898e+06) (1.27927 1.27927 -9.44443e+06) (-4.94275 -4.94275 -9.58067e+06)
3000          (8.25216 8.25216 -1.33574e+07) (7.98177 7.98177 -8.95324e+06) (6.44345 6.44345 -8.96613e+06) (5.47302 5.47302 -8.99201e+06) (5.28244 5.28244 -9.03113e+06) (4.90587 4.90587 -9.08398e+06) (4.85546 4.85546 -9.15118e+06) (4.70535 4.70535 -9.23365e+06) (4.0588 4.0588 -9.33259e+06) (2.77044 2.77044 -9.44961e+06) (-3.83643 -3.83643 -9.58711e+06)
3050          (-4.53515 -4.53515 -1.33528e+07) (-1.91112 -1.91112 -8.94884e+06) (3.8585 3.8585 -8.96208e+06) (7.58422 7.58422 -8.98866e+06) (9.13112 9.13112 -9.0288e+06) (9.62073 9.62073 -9.08285e+06) (8.32645 8.32645 -9.15144e+06) (5.86134 5.86134 -9.23542e+06) (2.87171 2.87171 -9.33589e+06) (-0.17742 -0.17742 -9.45434e+06) (-6.27819 -6.27819 -9.59298e+06)
3100          (6.91272 6.91272 -1.33487e+07) (7.4918 7.4918 -8.9446e+06) (4.87478 4.87478 -8.95838e+06) (3.58356 3.58356 -8.98567e+06) (3.74628 3.74628 -9.02665e+06) (3.44341 3.44341 -9.08182e+06) (3.76404 3.76404 -9.15168e+06) (4.09643 4.09643 -9.23703e+06) (3.895 3.895 -9.3389e+06) (3.03955 3.03955 -9.45866e+06) (-2.33904 -2.33904 -9.59834e+06)
3150          (-2.64577 -2.64577 -1.33448e+07) (-1.92298 -1.92298 -8.94103e+06) (4.26863 4.26863 -8.95502e+06) (7.63331 7.63331 -8.98284e+06) (8.30461 8.30461 -9.02473e+06) (8.68937 8.68937 -9.08088e+06) (7.27075 7.27075 -9.1519e+06) (4.82958 4.82958 -9.2385e+06) (2.08858 2.08858 -9.34165e+06) (-0.641169 -0.641169 -9.46259e+06) (-6.1471 -6.1471 -9.60323e+06)
3200          (5.19904 5.19904 -1.33415e+07) (7.63529 7.63529 -8.93737e+06) (3.60558 3.60558 -8.95194e+06) (2.04989 2.04989 -8.98041e+06) (2.83016 2.83016 -9.02292e+06) (2.3926 2.3926 -9.08002e+06) (2.89969 2.89969 -9.15211e+06) (3.50322 3.50322 -9.23985e+06) (3.51055 3.51055 -9.34415e+06) (2.91696 2.91696 -9.46618e+06) (-1.4966 -1.4966 -9.60768e+06)
3250          (18.2952 18.2952 -1.33382e+07) (15.0391 15.0391 -8.9347e+06) (33.3604 33.3604 -8.9491e+06) (41.0845 41.0845 -8.97795e+06) (39.6962 39.6962 -9.02135e+06) (38.8865 38.8865 -9.07919e+06) (31.6154 31.6154 -9.15223e+06) (20.7029 20.7029 -9.24102e+06) (7.78358 7.78358 -9.34638e+06) (-5.84672 -5.84672 -9.46941e+06) (-30.5765 -30.5765 -9.61173e+06)
3300          (-8.48672 -8.48672 -1.33357e+07) (10.0633 10.0633 -8.93111e+06) (1.75579 1.75579 -8.94668e+06) (4.7612 4.7612 -8.97613e+06) (10.4592 10.4592 -9.01978e+06) (7.78926 7.78926 -9.07857e+06) (7.19943 7.19943 -9.15247e+06) (5.4203 5.4203 -9.24218e+06) (2.8082 2.8082 -9.34851e+06) (0.412354 0.412354 -9.47243e+06) (-5.53278 -5.53278 -9.61544e+06)
3350          (14.8897 14.8897 -1.33326e+07) (-3.36381 -3.36381 -8.92946e+06) (6.47246 6.47246 -8.94426e+06) (5.71994 5.71994 -8.97393e+06) (0.477855 0.477855 -9.01861e+06) (2.72033 2.72033 -9.07789e+06) (2.482 2.482 -9.1526e+06) (2.22391 2.22391 -9.24321e+06) (2.11051 2.11051 -9.3504e+06) (1.09118 1.09118 -9.47514e+06) (-3.83718 -3.83718 -9.61881e+06)
3400          (-27.8712 -27.8712 -1.3331e+07) (9.98477 9.98477 -8.92598e+06) (4.65742 4.65742 -8.94225e+06) (15.6334 15.6334 -8.9725e+06) (28.4909 28.4909 -9.01711e+06) (25.9815 25.9815 -9.07724e+06) (24.6911 24.6911 -9.15265e+06) (20.5707 20.5707 -9.244e+06) (14.3819 14.3819 -9.35201e+06) (7.68853 7.68853 -9.47752e+06) (-5.26493 -5.26493 -9.62183e+06)
3450          (5.99574 5.99574 -1.33281e+07) (-10.9731 -10.9731 -8.92515e+06) (7.71923 7.71923 -8.94025e+06) (11.1436 11.1436 -8.97063e+06) (7.3123 7.3123 -9.01633e+06) (10.9169 10.9169 -9.07677e+06) (9.34199 9.34199 -9.15285e+06) (6.79486 6.79486 -9.24495e+06) (4.37406 4.37406 -9.35366e+06) (1.33708 1.33708 -9.47983e+06) (-6.84982 -6.84982 -9.62464e+06)
3500          (14.8485 14.8485 -1.33268e+07) (31.2235 31.2235 -8.92207e+06) (18.6494 18.6494 -8.93861e+06) (18.7593 18.7593 -8.96955e+06) (21.9167 21.9167 -9.01511e+06) (15.3426 15.3426 -9.07631e+06) (11.7672 11.7672 -9.15298e+06) (6.94472 6.94472 -9.24569e+06) (0.273638 0.273638 -9.35507e+06) (-6.6724 -6.6724 -9.48186e+06) (-25.497 -25.497 -9.62715e+06)
3550          (-20.4826 -20.4826 -1.33244e+07) (-45.9496 -45.9496 -8.92178e+06) (-22.9035 -22.9035 -8.93676e+06) (-24.725 -24.725 -8.96788e+06) (-23.2458 -23.2458 -9.0144e+06) (-8.65444 -8.65444 -9.07569e+06) (-2.03961 -2.03961 -9.15293e+06) (7.58652 7.58652 -9.24625e+06) (18.1958 18.1958 -9.3562e+06) (25.6214 25.6214 -9.48357e+06) (21.3594 21.3594 -9.62938e+06)
3600          (-2.15159 -2.15159 -1.33237e+07) (11.8998 11.8998 -8.91834e+06) (-16.437 -16.437 -8.93591e+06) (-12.3053 -12.3053 -8.96695e+06) (-14.597 -14.597 -9.01326e+06) (-18.5596 -18.5596 -9.07545e+06) (-13.7144 -13.7144 -9.15301e+06) (-10.813 -10.813 -9.24687e+06) (-5.04872 -5.04872 -9.35738e+06) (2.29856 2.29856 -9.48524e+06) (4.5738 4.5738 -9.63141e+06)
3650          (17.1084 17.1084 -1.33214e+07) (-10.7218 -10.7218 -8.91853e+06) (19.1874 19.1874 -8.93411e+06) (14.8498 14.8498 -8.96591e+06) (8.14398 8.14398 -9.01289e+06) (12.0562 12.0562 -9.07505e+06) (6.96131 6.96131 -9.15325e+06) (4.06051 4.06051 -9.24753e+06) (-0.099168 -0.099168 -9.35851e+06) (-5.94027 -5.94027 -9.48683e+06) (-7.84377 -7.84377 -9.63338e+06)
3700          (3.21125 3.21125 -1.33208e+07) (15.9077 15.9077 -8.91581e+06) (-5.55355 -5.55355 -8.93369e+06) (6.79791 6.79791 -8.96486e+06) (-0.36619 -0.36619 -9.01197e+06) (-1.08454 -1.08454 -9.07475e+06) (-0.0461083 -0.0461083 -9.15313e+06) (-1.36978 -1.36978 -9.2479e+06) (-0.784059 -0.784059 -9.35931e+06) (-0.80445 -0.80445 -9.48805e+06) (-0.692919 -0.692919 -9.63497e+06)
3750          (-14.0006 -14.0006 -1.33191e+07) (-20.4095 -20.4095 -8.91628e+06) (-0.0941422 -0.0941423 -8.93166e+06) (-8.76458 -8.76458 -8.96414e+06) (-1.67512 -1.67512 -9.01138e+06) (-0.632421 -0.632421 -9.07428e+06) (0.566292 0.566292 -9.15323e+06) (3.02457 3.02457 -9.24831e+06) (4.13267 4.13267 -9.36018e+06) (5.79688 5.79688 -9.48932e+06) (10.9369 10.9369 -9.63653e+06)
3800          (8.05878 8.05878 -1.33185e+07) (18.4982 18.4982 -8.91374e+06) (-2.77812 -2.77812 -8.93166e+06) (9.80416 9.80416 -8.96315e+06) (3.37268 3.37268 -9.01088e+06) (3.60355 3.60355 -9.07416e+06) (3.28671 3.28671 -9.15329e+06) (1.69492 1.69492 -9.24881e+06) (1.12909 1.12909 -9.36098e+06) (-0.558846 -0.558846 -9.49045e+06) (-4.79931 -4.79931 -9.63794e+06)
3850          (16.8768 16.8768 -1.33172e+07) (-9.46037 -9.46037 -8.91402e+06) (12.2744 12.2744 -8.93005e+06) (0.473967 0.473967 -8.96264e+06) (-2.13787 -2.13787 -9.01031e+06) (-6.3925 -6.3925 -9.07386e+06) (-8.00537 -8.00537 -9.15335e+06) (-9.36598 -9.36598 -9.24915e+06) (-9.35677 -9.35677 -9.36168e+06) (-9.02781 -9.02781 -9.49146e+06) (-8.54974 -8.54974 -9.6392e+06)
3900          (-19.8838 -19.8838 -1.33166e+07) (-17.3482 -17.3482 -8.91283e+06) (-5.29033 -5.29033 -8.92959e+06) (-3.04788 -3.04788 -8.96205e+06) (3.44543 3.44543 -9.00994e+06) (8.22681 8.22681 -9.07365e+06) (11.2675 11.2675 -9.15336e+06) (13.442 13.442 -9.2494e+06) (14.2307 14.2307 -9.36219e+06) (14.4339 14.4339 -9.49222e+06) (15.8426 15.8426 -9.64017e+06)
3950          (-1.43078 -1.43078 -1.33156e+07) (10.9832 10.9832 -8.91177e+06) (5.89729 5.89729 -8.92881e+06) (9.62002 9.62002 -8.96131e+06) (8.0456 8.0456 -9.00953e+06) (7.57927 7.57927 -9.07349e+06) (6.06822 6.06822 -9.15352e+06) (4.04992 4.04992 -9.24989e+06) (1.65277 1.65277 -9.36299e+06) (-0.957947 -0.957947 -9.49331e+06) (-6.66205 -6.66205 -9.64149e+06)
4000          (21.827 21.827 -1.33149e+07) (34.8012 34.8012 -8.91105e+06) (26.6902 26.6902 -8.92822e+06) (30.0687 30.0687 -8.96079e+06) (26.3883 26.3883 -9.00919e+06) (21.5756 21.5756 -9.07332e+06) (14.7014 14.7014 -9.15355e+06) (6.55432 6.55432 -9.25012e+06) (-2.42166 -2.42166 -9.36343e+06) (-12.2906 -12.2906 -9.49395e+06) (-17.139 -17.139 -9.64226e+06)
4050          (0.544549 0.544549 -1.3314e+07) (12.0223 12.0223 -8.9102e+06) (7.4072 7.4072 -8.92725e+06) (-2.17021 -2.17021 -8.96037e+06) (3.16396 3.16396 -9.00869e+06) (-0.654509 -0.654509 -9.07315e+06) (-3.00405 -3.00405 -9.15361e+06) (-4.36608 -4.36608 -9.25045e+06) (-6.77925 -6.77925 -9.36403e+06) (-16.418 -16.418 -9.4948e+06) (-8.25673 -8.25673 -9.64334e+06)