# Probe 0 (0.0015 0.0015 0)
# Probe 1 (0.0015 0.0015 0.002)
# Probe 2 (0.0015 0.0015 0.004)
# Probe 3 (0.0015 0.0015 0.006)
# Probe 4 (0.0015 0.0015 0.008)
# Probe 5 (0.0015 0.0015 0.01)
# Probe 6 (0.0015 0.0015 0.012)
# Probe 7 (0.0015 0.0015 0.014)
# Probe 8 (0.0015 0.0015 0.016)
# Probe 9 (0.0015 0.0015 0.018)
# Probe 10 (0.0015 0.0015 0.02)
# Time        0             1             2             3             4             5             6             7             8             9             10           
50            (-0.00433769 -0.00433769 28944.6) (0.00689008 0.00689008 16705.5) (0.00544005 0.00544005 6904.91) (-0.003391 -0.003391 2446.17) (0.000856599 0.000856599 695.851) (0.00538765 0.00538765 82.2581) (0.00198873 0.00198873 -37.0224) (0.00052828 0.00052828 184.223) (0.00130608 0.00130608 907.076) (-0.00107086 -0.00107086 2612.31) (-0.0016715 -0.0016715 6071.72)
100           (0.0206507 0.0206507 22202.9) (0.0263496 0.0263496 16424.7) (-0.00311029 -0.00311029 9979.76) (-0.00932459 -0.00932459 4892.29) (-0.00663971 -0.00663971 2078.35) (-0.0106478 -0.0106478 813.866) (-0.00696569 -0.00696569 431.884) (-0.00262322 -0.00262322 633.744) (-0.00534305 -0.00534305 1404.02) (-0.00343869 -0.00343869 2859.91) (-0.00130589 -0.00130589 4987.09)
150           (-0.0181232 -0.0181232 18684.7) (-0.0239044 -0.0239044 14525.4) (-0.0212037 -0.0212037 10764.7) (-0.00330285 -0.00330285 6601.32) (0.00328003 0.00328003 3496.86) (0.00259868 0.00259868 1753.14) (0.00340924 0.00340924 1057.66) (0.00477707 0.00477707 1106.05) (0.00531962 0.00531962 1746.37) (0.00572797 0.00572797 2891.8) (-0.00116173 -0.00116173 4330.79)
200           (-0.0140444 -0.0140444 16527.3) (0.000201881 0.000201881 12949.1) (-0.0144623 -0.0144623 10562) (-0.00275863 -0.00275863 7482.22) (0.00589955 0.00589955 4648.47) (0.00510039 0.00510039 2710.94) (0.00146695 0.00146695 1749.43) (0.00270594 0.00270594 1583.23) (0.00330673 0.00330673 2018.24) (0.00142455 0.00142455 2875.8) (-0.000666006 -0.000666006 3896.26)
250           (0.0290978 0.0290978 15048) (0.039766 0.039766 11743.9) (0.0291816 0.0291816 10099.4) (0.0146194 0.0146194 7825.61) (-0.00209856 -0.00209856 5452.16) (-0.0118757 -0.0118757 3558.67) (-0.0149813 -0.0149813 2434.15) (-0.0140888 -0.0140888 2057.38) (-0.00891058 -0.00891058 2270.05) (-0.00753839 -0.00753839 2872.43) (-0.00268104 -0.00268104 3604.22)
300           (-0.00783409 -0.00783409 13963.5) (-0.000755678 -0.000755678 10809.9) (-0.00831244 -0.00831244 9611.48) (-0.000644446 -0.000644446 7892.45) (0.0046455 0.0046455 5961.85) (0.00503523 0.00503523 4240.9) (0.00294558 0.00294558 3059.17) (0.00116377 0.00116377 2514.51) (0.000435621 0.000435621 2520.41) (0.00163279 0.00163279 2900.05) (-0.00630626 -0.00630626 3414.18)
350           (-0.00339885 -0.00339885 13132.7) (-0.0313119 -0.0313119 10070.4) (-0.0231815 -0.0231815 9162.44) (-0.0223264 -0.0223264 7829.73) (-0.0143916 -0.0143916 6264.17) (-0.005171 -0.005171 4756.7) (0.00181457 0.00181457 3596.89) (0.0054795 0.0054795 2940.15) (0.00607223 0.00607223 2771.89) (0.00678525 0.00678525 2960.62) (0.00362406 0.00362406 3302.08)
400           (-0.00257806 -0.00257806 12476.4) (-0.0264586 -0.0264586 9473.38) (-0.0138367 -0.0138367 8765.74) (-0.0161904 -0.0161904 7709.87) (-0.01201 -0.01201 6431.42) (-0.00582207 -0.00582207 5131.54) (-0.000811306 -0.000811306 4040.14) (0.00190905 0.00190905 3323.68) (0.00358654 0.00358654 3020.54) (0.00549262 0.00549262 3050.3) (0.00233616 0.00233616 3251.29)
450           (0.0547821 0.0547821 11945.9) (0.0719902 0.0719902 8983.32) (0.0614262 0.0614262 8419.53) (0.0433873 0.0433873 7567.56) (0.0167439 0.0167439 6512.76) (-0.0104687 -0.0104687 5396.52) (-0.0283602 -0.0283602 4394.63) (-0.0326699 -0.0326699 3659.92) (-0.0278396 -0.0278396 3260.7) (-0.0167447 -0.0167447 3162.65) (-0.0014163 -0.0014163 3249.58)
500           (-0.0478906 -0.0478906 11509.2) (-0.0448761 -0.0448761 8574.79) (-0.0445062 -0.0445062 8117.68) (-0.0296706 -0.0296706 7419.51) (-0.012043 -0.012043 6539.89) (0.00452881 0.00452881 5580.04) (0.0171744 0.0171744 4672.73) (0.023499 0.023499 3948.46) (0.0201975 0.0201975 3487.62) (0.0102721 0.0102721 3291.46) (0.00878761 0.00878761 3286.68)
550           (-0.0392553 -0.0392553 11144.3) (-0.0401674 -0.0401674 8229.63) (-0.0409499 -0.0409499 7853.51) (-0.0302689 -0.0302689 7273.58) (-0.0155509 -0.0155509 6532.42) (-0.000753436 -0.000753436 5703.78) (0.0113282 0.0113282 4887.97) (0.018492 0.018492 4192.38) (0.0177518 0.0177518 3698.1) (0.0105756 0.0105756 3430.72) (0.011101 0.011101 3354.07)
600           (-0.0316283 -0.0316283 10835.3) (-0.0329225 -0.0329225 7934.77) (-0.0345025 -0.0345025 7621.36) (-0.0268439 -0.0268439 7133.89) (-0.015726 -0.015726 6503.33) (-0.0037856 -0.0037856 5784.3) (0.0066959 0.0066959 5053.07) (0.0135854 0.0135854 4396.6) (0.0145012 0.0145012 3890.58) (0.0101987 0.0101987 3575.28) (0.0117938 0.0117938 3444.56)
650           (-0.0249786 -0.0249786 10570.6) (-0.0263716 -0.0263716 7680.3) (-0.0283906 -0.0283906 7416.22) (-0.0229629 -0.0229629 7002.17) (-0.014792 -0.014792 6460.97) (-0.0055374 -0.0055374 5833.68) (0.0031498 0.0031498 5178.91) (0.00940463 0.00940463 4566.7) (0.0112956 0.0112956 4064.85) (0.00913274 0.00913274 3721.07) (0.0115274 0.0115274 3551.92)
700           (-0.0192872 -0.0192872 10341.6) (-0.0206285 -0.0206285 7458.66) (-0.0228592 -0.0228592 7233.95) (-0.0190671 -0.0190671 6879.02) (-0.013202 -0.013202 6410.86) (-0.0062448 -0.0062448 5860.77) (0.000706592 0.000706592 5274.34) (0.00614537 0.00614537 4708.15) (0.00850616 0.00850616 4221.6) (0.00776685 0.00776685 3864.98) (0.0104892 0.0104892 3670.86)
750           (-0.0146186 -0.0146186 10141.5) (-0.015858 -0.015858 7264.02) (-0.0181292 -0.0181292 7071.16) (-0.0155087 -0.0155087 6764.45) (-0.011371 -0.011371 6356.68) (-0.0062476 -0.0062476 5872.03) (-0.000822702 -0.000822702 5346.45) (0.00375914 0.00375914 4825.96) (0.006269 0.006269 4362.13) (0.00640575 0.00640575 4004.78) (0.00898546 0.00898546 3796.91)
800           (0.0304291 0.0304291 9965.37) (0.0309671 0.0309671 7091.86) (0.0254594 0.0254594 6925) (0.0216562 0.0216562 6658.15) (0.0147076 0.0147076 6300.88) (0.00662922 0.00662922 5872.18) (-0.00174558 -0.00174558 5400.78) (-0.00949768 -0.00949768 4924.5) (-0.015527 -0.015527 4487.99) (-0.0193179 -0.0193179 4138.89) (-0.0203852 -0.0203852 3926.33)
850           (0.0228506 0.0228506 9809.25) (0.0227803 0.0227803 6938.54) (0.0192017 0.0192017 6793.32) (0.0166046 0.0166046 6559.75) (0.0116935 0.0116935 6245.18) (0.0058493 0.0058493 5864.71) (-0.000412211 -0.000412211 5441.63) (-0.00652837 -0.00652837 5007.4) (-0.0117009 -0.0117009 4600.79) (-0.0153142 -0.0153142 4266.45) (-0.0183519 -0.0183519 4056.24)
900           (-0.00485691 -0.00485691 9670.13) (-0.00726677 -0.00726677 6801.18) (-0.00653011 -0.00653011 6674.15) (-0.00586202 -0.00586202 6468.68) (-0.00450657 -0.00450657 6190.6) (-0.00249434 -0.00249434 5852.1) (-4.4446e-05 -4.4446e-05 5472.34) (0.00240093 0.00240093 5077.77) (0.00406165 0.00406165 4702.18) (0.00412257 0.00412257 4386.91) (0.00264189 0.00264189 4184.15)
950           (-0.00370879 -0.00370879 9545.26) (-0.00571119 -0.00571119 6677.81) (-0.00513461 -0.00513461 6566.11) (-0.00478021 -0.00478021 6384.63) (-0.00383131 -0.00383131 6137.99) (-0.00235094 -0.00235094 5836.19) (-0.00046144 -0.00046144 5495.24) (0.00158156 0.00158156 5137.71) (0.00323694 0.00323694 4793.27) (0.00394723 0.00394723 4499.94) (0.00396277 0.00396277 4308.84)
1000          (-0.00328529 -0.00328529 9432.79) (-0.00526509 -0.00526509 6566.4) (-0.0048317 -0.0048317 6467.83) (-0.00457391 -0.00457391 6307.06) (-0.00382943 -0.00382943 6087.8) (-0.00262756 -0.00262756 5818.38) (-0.00102498 -0.00102498 5512.38) (0.000828704 0.000828704 5189.31) (0.00256573 0.00256573 4875.43) (0.00389765 0.00389765 4605.56) (0.00524246 0.00524246 4428.72)
1050          (-0.00331933 -0.00331933 9331.1) (-0.0052199 -0.0052199 6465.45) (-0.00493196 -0.00493196 6378.25) (-0.00476792 -0.00476792 6235.53) (-0.0041396 -0.0041396 6040.3) (-0.00306933 -0.00306933 5799.64) (-0.00159198 -0.00159198 5525.24) (0.000205118 0.000205118 5234.15) (0.00206236 0.00206236 4949.76) (0.00391602 0.00391602 4703.92) (0.00628637 0.00628637 4542.9)
1100          (-0.0035066 -0.0035066 9238.84) (-0.00537639 -0.00537639 6373.71) (-0.00524284 -0.00524284 6296.46) (-0.00513612 -0.00513612 6169.6) (-0.0045748 -0.0045748 5995.65) (-0.0035709 -0.0035709 5780.69) (-0.00213848 -0.00213848 5534.95) (-0.000326632 -0.000326632 5273.47) (0.00166751 0.00166751 5017.2) (0.00394672 0.00394672 4795.23) (0.00707346 0.00707346 4650.83)
1150          (0.00258007 0.00258007 9154.94) (-0.000703502 -0.000703502 6290.19) (-0.000294906 -0.000294906 6221.72) (-0.000819915 -0.000819915 6108.91) (-0.00120309 -0.00120309 5953.92) (-0.00146621 -0.00146621 5762.07) (-0.0015524 -0.0015524 5542.37) (-0.00139377 -0.00139377 5308.24) (-0.000957013 -0.000957013 5078.54) (-0.000131222 -0.000131222 4879.8) (0.00245148 0.00245148 4752.32)
1200          (-0.000701786 -0.000701786 9078.47) (-0.00145856 -0.00145856 6213.94) (-0.00100624 -0.00100624 6153.23) (-0.000731301 -0.000731301 6052.95) (-0.000321914 -0.000321913 5914.97) (0.000156412 0.000156412 5743.98) (0.00072433 0.00072433 5548.03) (0.00139811 0.00139811 5339.16) (0.00219033 0.00219033 5134.42) (0.00334067 0.00334067 4957.99) (0.00459753 0.00459753 4846.98)
1250          (0.00239889 0.00239889 9008.75) (-0.00114641 -0.00114641 6144.32) (-0.00062956 -0.00062956 6090.57) (-0.00102763 -0.00102763 6001.54) (-0.00139495 -0.00139495 5878.86) (-0.00163875 -0.00163875 5726.77) (-0.00171502 -0.00171502 5552.49) (-0.00155958 -0.00155958 5366.88) (-0.00115426 -0.00115426 5185.4) (-0.000110957 -0.000110957 5030.14) (0.00287247 0.00287247 4935.3)
1300          (-0.000528615 -0.000528615 8944.87) (-0.000984098 -0.000984098 6080.59) (-0.000542698 -0.000542698 6033.11) (-0.000345923 -0.000345923 5954.21) (-3.90309e-08 -3.90309e-08 5845.4) (0.000396148 0.000396148 5710.49) (0.000839302 0.000839302 5556.02) (0.00136135 0.00136135 5391.84) (0.00200433 0.00200433 5232) (0.00307026 0.00307026 5096.63) (0.00417415 0.00417415 5016.99)
1350          (9.80602e-05 9.80602e-05 8886.59) (-0.00103438 -0.00103438 6022.28) (-0.000354726 -0.000354726 5980.42) (9.66934e-05 9.66934e-05 5910.72) (0.00047386 0.00047386 5814.51) (0.000847372 0.000847372 5695.24) (0.00123876 0.00123876 5558.89) (0.00165402 0.00165402 5414.41) (0.00207745 0.00207745 5274.61) (0.00298717 0.00298717 5157.82) (0.00375849 0.00375849 5092.67)
1400          (0.00112304 0.00112304 8833.1) (-0.00186268 -0.00186268 5968.93) (-0.00288204 -0.00288204 5932.23) (-0.00411423 -0.00411423 5870.85) (-0.00498662 -0.00498662 5786.08) (-0.00550222 -0.00550222 5681.07) (-0.0056216 -0.0056216 5561.29) (-0.0052242 -0.0052242 5434.9) (-0.00417921 -0.00417921 5313.58) (-0.00229522 -0.00229522 5214.07) (0.00318378 0.00318378 5162.6)
1450          (0.00134303 0.00134303 8784.21) (-0.00186545 -0.00186545 5920) (-0.00286983 -0.00286983 5887.96) (-0.00380434 -0.00380434 5834.21) (-0.00463383 -0.00463383 5759.89) (-0.00518378 -0.00518378 5667.92) (-0.00531891 -0.00531891 5563.32) (-0.00495869 -0.00495869 5453.55) (-0.00397173 -0.00397173 5349.28) (-0.00219472 -0.00219472 5265.76) (0.00301806 0.00301806 5226.93)
1500          (0.00106853 0.00106853 8739.36) (-0.00157526 -0.00157526 5875.19) (-0.00252554 -0.00252554 5847.42) (-0.00354722 -0.00354722 5800.59) (-0.00430569 -0.00430569 5735.82) (-0.00477716 -0.00477716 5655.79) (-0.00490863 -0.00490863 5565.08) (-0.00459153 -0.00459153 5470.56) (-0.00369091 -0.00369091 5381.97) (-0.00204937 -0.00204937 5313.2) (0.00282225 0.00282225 5286.08)
1550          (0.00114518 0.00114518 8698.29) (-0.00152909 -0.00152909 5834.11) (-0.00238912 -0.00238912 5810.24) (-0.00321926 -0.00321926 5769.77) (-0.00393152 -0.00393152 5713.73) (-0.00439682 -0.00439682 5644.62) (-0.0045206 -0.0045206 5566.65) (-0.00423075 -0.00423075 5486.11) (-0.00340991 -0.00340991 5411.9) (-0.00190327 -0.00190327 5356.71) (0.00260969 0.00260969 5340.41)
1600          (0.00097781 0.00097781 8660.64) (-0.00132544 -0.00132544 5796.48) (-0.00214242 -0.00214242 5776.18) (-0.0029819 -0.0029819 5741.52) (-0.00362394 -0.00362394 5693.48) (-0.00403231 -0.00403231 5634.37) (-0.00414983 -0.00414983 5568.06) (-0.00388969 -0.00388969 5500.33) (-0.00314014 -0.00314014 5439.32) (-0.00175959 -0.00175959 5396.6) (0.00240907 0.00240907 5390.26)
1650          (0.000980664 0.000980664 8626.16) (-0.00125353 -0.00125353 5761.99) (-0.00199595 -0.00199595 5744.96) (-0.00271341 -0.00271341 5715.64) (-0.00331097 -0.00331097 5674.93) (-0.00369862 -0.00369862 5624.97) (-0.00380521 -0.00380521 5569.35) (-0.00356667 -0.00356667 5513.35) (-0.00288356 -0.00288356 5464.43) (-0.00162215 -0.00162215 5433.14) (0.00221331 0.00221331 5435.96)
1700          (0.000872262 0.000872262 8594.56) (-0.00110818 -0.00110818 5730.4) (-0.00180668 -0.00180668 5716.38) (-0.00249985 -0.00249985 5691.94) (-0.00303928 -0.00303928 5657.94) (-0.00338433 -0.00338433 5616.37) (-0.00348291 -0.00348291 5570.53) (-0.00326636 -0.00326636 5525.28) (-0.00264286 -0.00264286 5487.43) (-0.0014913 -0.0014913 5466.6) (0.00203233 0.00203233 5477.82)
1750          (0.000845779 0.000845779 8565.62) (-0.00102944 -0.00102944 5701.46) (-0.00166931 -0.00166931 5690.2) (-0.00227925 -0.00227925 5670.24) (-0.00277649 -0.00277649 5642.39) (-0.00309717 -0.00309717 5608.51) (-0.00318553 -0.00318553 5571.62) (-0.00298664 -0.00298664 5536.2) (-0.00241827 -0.00241827 5508.48) (-0.00136862 -0.00136862 5497.23) (0.00186137 0.00186137 5516.14)
1800          (0.000770511 0.000770511 8539.12) (-0.000919845 -0.000919845 5674.97) (-0.00151811 -0.00151811 5666.23) (-0.00209261 -0.00209261 5650.38) (-0.00254264 -0.00254264 5628.17) (-0.00283022 -0.00283022 5601.33) (-0.00291053 -0.00291053 5572.64) (-0.00272888 -0.00272888 5546.21) (-0.00221028 -0.00221028 5527.74) (-0.00125396 -0.00125396 5525.26) (0.00170416 0.00170416 5551.21)
1850          (0.000735577 0.000735577 8514.85) (-0.000844605 -0.000844605 5650.71) (-0.00139612 -0.00139612 5644.29) (-0.00190996 -0.00190996 5632.21) (-0.00232223 -0.00232223 5615.17) (-0.00258643 -0.00258643 5594.77) (-0.00265807 -0.00265807 5573.58) (-0.00249112 -0.00249112 5555.38) (-0.00201829 -0.00201829 5545.38) (-0.00114774 -0.00114774 5550.9) (0.0015579 0.0015579 5583.28)
1900          (0.000680311 0.000680311 8492.63) (-0.00075816 -0.00075816 5628.51) (-0.00127261 -0.00127261 5624.22) (-0.00174992 -0.00174992 5615.59) (-0.00212371 -0.00212371 5603.29) (-0.00236163 -0.00236163 5588.79) (-0.00242608 -0.00242608 5574.47) (-0.00227315 -0.00227315 5563.78) (-0.00184182 -0.00184182 5561.51) (-0.00104954 -0.00104954 5574.34) (0.00142377 0.00142377 5612.61)
1950          (0.000645759 0.000645759 8472.3) (-0.000690532 -0.000690532 5608.19) (-0.00116712 -0.00116712 5605.85) (-0.00159799 -0.00159799 5600.39) (-0.00193922 -0.00193922 5592.43) (-0.00215642 -0.00215642 5583.33) (-0.00221379 -0.00221379 5575.29) (-0.00207324 -0.00207324 5571.48) (-0.00167992 -0.00167992 5576.27) (-0.000959196 -0.000959196 5595.78) (0.0013 0.0013 5639.41)
2000          (0.000603583 0.000603583 8453.7) (-0.000620368 -0.000620368 5589.61) (-0.00106501 -0.00106501 5589.06) (-0.00146231 -0.00146231 5586.5) (-0.00177202 -0.00177202 5582.51) (-0.00196811 -0.00196811 5578.36) (-0.00201943 -0.00201943 5576.06) (-0.00189051 -0.00189051 5578.53) (-0.00153175 -0.00153175 5589.77) (-0.000876195 -0.000876195 5615.37) (0.00118671 0.00118671 5663.91)
2050          (0.000572676 0.000572676 8436.68) (-0.000561405 -0.000561405 5572.61) (-0.000975071 -0.000975071 5573.7) (-0.00133566 -0.00133566 5573.8) (-0.00161785 -0.00161785 5573.45) (-0.00179628 -0.00179628 5573.82) (-0.00184192 -0.00184192 5576.77) (-0.00172346 -0.00172346 5584.98) (-0.00139628 -0.00139628 5602.12) (-0.000800149 -0.000800149 5633.28) (0.00108267 0.00108267 5686.29)
2100          (0.000539671 0.000539671 8421.12) (-0.000503525 -0.000503525 5557.06) (-0.000890155 -0.000890155 5559.66) (-0.0012214 -0.0012214 5562.19) (-0.0014777 -0.0014777 5565.17) (-0.00163904 -0.00163904 5569.68) (-0.00167974 -0.00167974 5577.43) (-0.00157104 -0.00157104 5590.89) (-0.00127259 -0.00127259 5613.4) (-0.000730529 -0.000730529 5649.64) (0.000987562 0.000987562 5706.73)
2150          (0.000513239 0.000513239 8406.89) (-0.000452954 -0.000452954 5542.84) (-0.000814093 -0.000814093 5546.82) (-0.00111575 -0.00111575 5551.59) (-0.00134905 -0.00134905 5557.62) (-0.0014956 -0.0014956 5565.91) (-0.00153178 -0.00153178 5578.05) (-0.00143194 -0.00143194 5596.29) (-0.00115972 -0.00115972 5623.72) (-0.000666893 -0.000666893 5664.58) (0.000900466 0.000900466 5725.4)
2200          (-0.00518459 -0.00518459 8393.87) (-0.00605219 -0.00605219 5529.86) (-0.00415883 -0.00415883 5535.1) (-0.00336044 -0.00336044 5541.91) (-0.00204149 -0.00204149 5550.73) (-0.000362194 -0.000362194 5562.49) (0.00155073 0.00155073 5578.64) (0.00352902 0.00352902 5601.25) (0.00526428 0.00526428 5633.16) (0.00807604 0.00807604 5678.25) (0.0079542 0.0079542 5742.48)
2250          (0.000854359 0.000854359 8381.99) (-4.80138e-05 -4.80139e-05 5517.97) (0.00132251 0.00132251 5524.37) (0.00157469 0.00157469 5533.05) (0.001754 0.001754 5544.42) (0.00190778 0.00190778 5559.35) (0.0019039 0.0019039 5579.16) (0.00162485 0.00162485 5605.77) (0.001031 0.001031 5641.77) (0.00159966 0.00159966 5690.72) (-0.000194824 -0.000194824 5758.03)
2300          (0.00193993 0.00193993 8371.11) (0.00104161 0.00104161 5507.13) (-0.00234455 -0.00234455 5514.59) (-0.00422304 -0.00422304 5524.98) (-0.00543837 -0.00543837 5538.68) (-0.0068085 -0.0068085 5556.49) (-0.00785343 -0.00785343 5579.65) (-0.00802834 -0.00802834 5609.91) (-0.00751426 -0.00751426 5649.63) (-0.0080259 -0.0080259 5702.09) (-0.00299725 -0.00299725 5772.26)
2350          (-0.000558895 -0.000558895 8361.18) (0.00180344 0.00180344 5497.21) (0.00271332 0.00271332 5505.64) (0.00332542 0.00332542 5517.59) (0.00370852 0.00370852 5533.43) (0.00395025 0.00395025 5553.89) (0.00393384 0.00393384 5580.11) (0.00358444 0.00358444 5613.69) (0.00290009 0.00290009 5656.83) (0.00210062 0.00210062 5712.49) (0.00316131 0.00316131 5785.24)
2400          (0.00122061 0.00122061 8352.12) (0.00129312 0.00129312 5488.14) (0.00146132 0.00146132 5497.46) (0.00164274 0.00164274 5510.84) (0.00172499 0.00172499 5528.64) (0.00167242 0.00167242 5551.51) (0.00149003 0.00149003 5580.53) (0.00119024 0.00119024 5617.16) (0.000793277 0.000793277 5663.4) (0.000311952 0.000311952 5721.99) (-0.000368912 -0.000368912 5797.07)
2450          (0.00229587 0.00229587 8343.82) (-0.000350119 -0.000350119 5479.88) (-0.00176999 -0.00176999 5490) (-0.00304362 -0.00304362 5504.7) (-0.00422977 -0.00422977 5524.27) (-0.00520822 -0.00520822 5549.35) (-0.00590787 -0.00590787 5580.91) (-0.00623845 -0.00623845 5620.32) (-0.00607684 -0.00607684 5669.39) (-0.00530329 -0.00530329 5730.65) (-0.00271692 -0.00271692 5807.89)
2500          (-0.000447828 -0.000447828 8336.25) (0.00156332 0.00156332 5472.31) (0.00203933 0.00203933 5483.18) (0.00250289 0.00250289 5499.07) (0.00284436 0.00284436 5520.28) (0.0030118 0.0030118 5547.38) (0.00297948 0.00297948 5581.27) (0.00272712 0.00272712 5623.21) (0.00224829 0.00224829 5674.88) (0.00151545 0.00151545 5738.56) (0.00242337 0.00242337 5817.76)
2550          (0.000988429 0.000988429 8329.34) (0.000998129 0.000998129 5465.4) (0.0011161 0.0011161 5476.95) (0.00124848 0.00124848 5493.94) (0.00130799 0.00130799 5516.64) (0.00127041 0.00127041 5545.58) (0.00113345 0.00113345 5581.6) (0.000905167 0.000905167 5625.85) (0.000599751 0.000599751 5679.88) (0.000239066 0.000239066 5745.79) (-0.000287289 -0.000287289 5826.75)
2600          (-0.00709681 -0.00709681 8323.02) (-0.00720863 -0.00720863 5459.11) (-0.0085523 -0.0085523 5471.27) (-0.00942634 -0.00942634 5489.25) (-0.00962479 -0.00962479 5513.31) (-0.00910275 -0.00910275 5543.93) (-0.00783624 -0.00783624 5581.89) (-0.00584184 -0.00584184 5628.24) (-0.00319592 -0.00319592 5684.42) (7.98345e-05 7.98346e-05 5752.36) (0.00934383 0.00934383 5834.98)
2650          (0.00359334 0.00359334 8317.26) (0.00210829 0.00210829 5453.35) (0.000121416 0.000121416 5466.08) (-0.00141771 -0.00141771 5484.98) (-0.00277553 -0.00277553 5510.28) (-0.00399041 -0.00399041 5542.44) (-0.00497276 -0.00497276 5582.17) (-0.00562898 -0.00562898 5630.46) (-0.00591967 -0.00591967 5688.6) (-0.00583142 -0.00583142 5758.38) (-0.00256617 -0.00256617 5842.48)
2700          (-0.00596282 -0.00596282 8312) (-0.00613182 -0.00613182 5448.09) (-0.00699035 -0.00699035 5461.35) (-0.00748157 -0.00748157 5481.08) (-0.00756339 -0.00756339 5507.51) (-0.0071487 -0.0071487 5541.08) (-0.00619904 -0.00619904 5582.43) (-0.00468103 -0.00468103 5632.47) (-0.00263004 -0.00263004 5692.4) (-0.000205547 -0.000205547 5763.87) (0.00698017 0.00698017 5849.32)
2750          (0.00380009 0.00380009 8307.19) (0.00221914 0.00221914 5443.3) (3.29767e-06 3.29767e-06 5457.03) (-0.00179474 -0.00179474 5477.52) (-0.00321532 -0.00321532 5504.99) (-0.00425624 -0.00425624 5539.84) (-0.00487936 -0.00487936 5582.67) (-0.00509555 -0.00509555 5634.31) (-0.00485513 -0.00485513 5695.89) (-0.00412554 -0.00412554 5768.89) (-0.000760523 -0.000760523 5855.56)
2800          (-0.00546007 -0.00546007 8302.81) (-0.00545484 -0.00545484 5438.91) (-0.00579521 -0.00579521 5453.08) (-0.0059233 -0.0059233 5474.27) (-0.00585804 -0.00585804 5502.69) (-0.00547964 -0.00547964 5538.71) (-0.00480907 -0.00480907 5582.88) (-0.0037703 -0.0037703 5635.99) (-0.00235602 -0.00235602 5699.05) (-0.000636428 -0.000636428 5773.45) (0.00515512 0.00515512 5861.26)
2850          (0.00407686 0.00407686 8298.79) (0.00214492 0.00214492 5434.93) (-0.000545972 -0.000545972 5449.48) (-0.00265473 -0.00265473 5471.3) (-0.00411441 -0.00411441 5500.59) (-0.00495862 -0.00495862 5537.68) (-0.00508482 -0.00508482 5583.08) (-0.00460681 -0.00460681 5637.53) (-0.00363019 -0.00363019 5701.95) (-0.00231005 -0.00231005 5777.63) (0.00114359 0.00114359 5866.46)
2900          (-0.00518556 -0.00518556 8295.15) (-0.00499495 -0.00499495 5431.26) (-0.00472664 -0.00472664 5446.19) (-0.00447375 -0.00447375 5468.6) (-0.0043212 -0.0043212 5498.67) (-0.00400918 -0.00400918 5536.73) (-0.00366425 -0.00366425 5583.27) (-0.00313834 -0.00313834 5638.93) (-0.00231503 -0.00231503 5704.59) (-0.00116325 -0.00116325 5781.43) (0.00353164 0.00353164 5871.2)
2950          (0.0037143 0.0037143 8291.79) (0.00166529 0.00166529 5427.96) (-0.00148043 -0.00148043 5443.19) (-0.0037673 -0.0037673 5466.12) (-0.00506815 -0.00506815 5496.93) (-0.00560705 -0.00560705 5535.88) (-0.00518085 -0.00518085 5583.43) (-0.00403872 -0.00403872 5640.21) (-0.00246533 -0.00246533 5707.01) (-0.000740963 -0.000740963 5784.91) (0.00286289 0.00286289 5875.53)
3000          (-0.00477973 -0.00477973 8288.78) (-0.00462312 -0.00462312 5424.88) (-0.0037321 -0.0037321 5440.45) (-0.00317002 -0.00317002 5463.88) (-0.00305964 -0.00305964 5495.33) (-0.00284153 -0.00284153 5535.1) (-0.00281233 -0.00281233 5583.59) (-0.00272538 -0.00272538 5641.37) (-0.00235089 -0.00235089 5709.21) (-0.00160467 -0.00160467 5788.08) (0.0022221 0.0022221 5879.48)
3050          (0.0026268 0.0026268 8285.96) (0.00110694 0.00110694 5422.17) (-0.00223488 -0.00223488 5437.96) (-0.00439285 -0.00439285 5461.81) (-0.00528883 -0.00528883 5493.88) (-0.00557241 -0.00557241 5534.38) (-0.00482276 -0.00482276 5583.73) (-0.00339494 -0.00339494 5642.44) (-0.00166332 -0.00166332 5711.22) (0.000102763 0.000102763 5790.97) (0.00363639 0.00363639 5883.08)
3100          (-0.00400391 -0.00400391 8283.48) (-0.00433932 -0.00433932 5419.55) (-0.00282352 -0.00282352 5435.67) (-0.00207563 -0.00207563 5459.96) (-0.00216988 -0.00216988 5492.54) (-0.00199445 -0.00199445 5533.73) (-0.00218017 -0.00218017 5583.86) (-0.00237269 -0.00237269 5643.41) (-0.00225602 -0.00225602 5713.05) (-0.00176053 -0.00176053 5793.61) (0.00135479 0.00135479 5886.36)
3150          (0.00153245 0.00153245 8281.09) (0.00111381 0.00111381 5417.35) (-0.00247243 -0.00247243 5433.6) (-0.00442128 -0.00442128 5458.21) (-0.0048101 -0.0048101 5491.35) (-0.00503296 -0.00503296 5533.14) (-0.00421128 -0.00421128 5583.97) (-0.00279734 -0.00279734 5644.3) (-0.00120972 -0.00120972 5714.72) (0.000371371 0.000371371 5796.02) (0.00356046 0.00356046 5889.36)
3200          (-0.00301133 -0.00301133 8279.08) (-0.00442243 -0.00442243 5415.1) (-0.00208839 -0.00208839 5431.69) (-0.00118732 -0.00118732 5456.7) (-0.00163926 -0.00163926 5490.22) (-0.00138582 -0.00138582 5532.6) (-0.00167952 -0.00167952 5584.09) (-0.0020291 -0.0020291 5645.11) (-0.00203334 -0.00203334 5716.25) (-0.00168953 -0.00168953 5798.22) (0.000866842 0.000866842 5892.1)
3250          (-0.0105968 -0.0105968 8277) (-0.00871079 -0.00871079 5413.46) (-0.0193226 -0.0193226 5429.95) (-0.0237965 -0.0237965 5455.18) (-0.0229924 -0.0229924 5489.24) (-0.0225234 -0.0225234 5532.08) (-0.0183119 -0.0183119 5584.15) (-0.0119913 -0.0119913 5645.82) (-0.00450832 -0.00450832 5717.6) (0.00338647 0.00338647 5800.19) (0.0177102 0.0177102 5894.57)
3300          (0.00491558 0.00491558 8275.51) (-0.00582878 -0.00582878 5411.25) (-0.00101697 -0.00101697 5428.45) (-0.00275773 -0.00275773 5454.06) (-0.00605809 -0.00605809 5488.27) (-0.00451161 -0.00451161 5531.68) (-0.00416998 -0.00416998 5584.29) (-0.00313949 -0.00313949 5646.52) (-0.00162654 -0.00162654 5718.9) (-0.000238839 -0.000238839 5802.04) (0.00320464 0.00320464 5896.85)
3350          (-0.00862427 -0.00862427 8273.6) (0.00194835 0.00194835 5410.23) (-0.00374891 -0.00374891 5426.96) (-0.00331304 -0.00331304 5452.69) (-0.000276778 -0.000276778 5487.54) (-0.00157564 -0.00157564 5531.26) (-0.0014376 -0.0014376 5584.35) (-0.00128811 -0.00128811 5647.14) (-0.00122243 -0.00122243 5720.05) (-0.000632022 -0.000632022 5803.7) (0.00222253 0.00222253 5898.92)
3400          (0.0161433 0.0161433 8272.57) (-0.00578327 -0.00578327 5408.09) (-0.00269762 -0.00269762 5425.71) (-0.00905503 -0.00905503 5451.81) (-0.0165022 -0.0165022 5486.6) (-0.0150487 -0.0150487 5530.84) (-0.0143013 -0.0143013 5584.37) (-0.0119147 -0.0119147 5647.62) (-0.00833013 -0.00833013 5721.03) (-0.00445327 -0.00445327 5805.15) (0.00304949 0.00304949 5900.77)
3450          (-0.00347278 -0.00347278 8270.8) (0.0063557 0.0063557 5407.57) (-0.00447105 -0.00447105 5424.49) (-0.00645448 -0.00645448 5450.65) (-0.00423535 -0.00423535 5486.12) (-0.00632316 -0.00632316 5530.55) (-0.00541097 -0.00541097 5584.49) (-0.00393565 -0.00393565 5648.2) (-0.00253349 -0.00253349 5722.04) (-0.000774446 -0.000774446 5806.56) (0.00396748 0.00396748 5902.49)
3500          (-0.00860041 -0.00860041 8270.04) (-0.0180849 -0.0180849 5405.68) (-0.0108019 -0.0108019 5423.47) (-0.0108656 -0.0108656 5449.98) (-0.0126944 -0.0126944 5485.37) (-0.00888656 -0.00888656 5530.25) (-0.0068157 -0.0068157 5584.56) (-0.00402245 -0.00402245 5648.64) (-0.000158494 -0.000158494 5722.9) (0.00386471 0.00386471 5807.8) (0.0147681 0.0147681 5904.03)
3550          (0.0118637 0.0118637 8268.58) (0.0266144 0.0266144 5405.5) (0.0132659 0.0132659 5422.34) (0.0143209 0.0143209 5448.95) (0.0134642 0.0134642 5484.92) (0.00501273 0.00501273 5529.86) (0.00118136 0.00118136 5584.52) (-0.00439418 -0.00439418 5648.97) (-0.0105392 -0.0105392 5723.58) (-0.0148401 -0.0148401 5808.85) (-0.0123715 -0.0123715 5905.4)
3600          (0.00124622 0.00124622 8268.09) (-0.00689249 -0.00689249 5403.38) (0.00952044 0.00952044 5421.79) (0.00712732 0.00712732 5448.38) (0.00845469 0.00845469 5484.21) (0.0107499 0.0107499 5529.71) (0.00794353 0.00794353 5584.56) (0.00626296 0.00626296 5649.35) (0.00292426 0.00292426 5724.3) (-0.00133135 -0.00133135 5809.87) (-0.00264919 -0.00264919 5906.65)
3650          (-0.00990935 -0.00990935 8266.73) (0.00621018 0.00621018 5403.5) (-0.0111135 -0.0111135 5420.7) (-0.00860113 -0.00860113 5447.73) (-0.00471707 -0.00471707 5483.99) (-0.00698305 -0.00698305 5529.46) (-0.00403206 -0.00403206 5584.71) (-0.00235188 -0.00235188 5649.75) (5.74388e-05 5.74387e-05 5725) (0.00344066 0.00344066 5810.85) (0.00454318 0.00454318 5907.86)
3700          (-0.00185999 -0.00185999 8266.35) (-0.00921386 -0.00921386 5401.83) (0.00321666 0.00321666 5420.43) (-0.00393741 -0.00393741 5447.09) (0.000212101 0.000212101 5483.41) (0.000628175 0.000628175 5529.27) (2.67067e-05 2.67066e-05 5584.62) (0.00079339 0.00079339 5649.97) (0.000454135 0.000454135 5725.48) (0.000465945 0.000465945 5811.59) (0.000401345 0.000401345 5908.83)
3750          (0.00810927 0.00810927 8265.33) (0.0118214 0.0118214 5402.11) (5.45284e-05 5.45285e-05 5419.18) (0.00507653 0.00507653 5446.63) (0.000970247 0.000970247 5483.04) (0.000366304 0.000366304 5528.97) (-0.000328001 -0.000328001 5584.68) (-0.00175186 -0.00175186 5650.22) (-0.00239368 -0.00239368 5726.01) (-0.00335761 -0.00335761 5812.36) (-0.00633473 -0.00633473 5909.78)
3800          (-0.00466772 -0.00466772 8264.93) (-0.0107143 -0.0107143 5400.55) (0.00160911 0.00160911 5419.18) (-0.00567866 -0.00567866 5446.03) (-0.00195349 -0.00195349 5482.73) (-0.00208721 -0.00208721 5528.9) (-0.00190369 -0.00190369 5584.71) (-0.000981715 -0.000981715 5650.52) (-0.000653978 -0.000653978 5726.5) (0.000323689 0.000323689 5813.06) (0.0027798 0.0027798 5910.65)
3850          (-0.00977521 -0.00977521 8264.13) (0.00547953 0.00547953 5400.72) (-0.00710945 -0.00710945 5418.19) (-0.000274526 -0.000274526 5445.7) (0.00123827 0.00123827 5482.38) (0.00370259 0.00370259 5528.71) (0.00463678 0.00463678 5584.74) (0.00542486 0.00542486 5650.73) (0.00541952 0.00541952 5726.93) (0.00522899 0.00522899 5813.68) (0.00495209 0.00495209 5911.42)
3900          (0.0115169 0.0115169 8263.75) (0.0100482 0.0100482 5399.99) (0.00306421 0.00306421 5417.91) (0.00176536 0.00176536 5445.34) (-0.00199563 -0.00199563 5482.15) (-0.00476504 -0.00476504 5528.57) (-0.00652623 -0.00652623 5584.75) (-0.00778571 -0.00778571 5650.88) (-0.00824252 -0.00824252 5727.24) (-0.00836024 -0.00836024 5814.14) (-0.00917617 -0.00917617 5912.01)