# Probe 0 (0.0015 0.0015 0)
# Probe 1 (0.0015 0.0015 0.002)
# Probe 2 (0.0015 0.0015 0.004)
# Probe 3 (0.0015 0.0015 0.006)
# Probe 4 (0.0015 0.0015 0.008)
# Probe 5 (0.0015 0.0015 0.01)
# Probe 6 (0.0015 0.0015 0.012)
# Probe 7 (0.0015 0.0015 0.014)
# Probe 8 (0.0015 0.0015 0.016)
# Probe 9 (0.0015 0.0015 0.018)
# Probe 10 (0.0015 0.0015 0.02)
# Time        0             1             2             3             4             5             6             7             8             9             10           
50            170994        95884.1       64949.3       54559.5       51319.1       50297.4       49807.2       49041.9       46925.3       41009.6       26222.3      
100           186559        122294        81407.7       61822.9       53848.5       50742.4       49203.3       47501.1       44110.9       36968.6       23641.9      
150           193880        138815        96939.2       71422.3       58518.8       52529         49351.7       46470.7       42044.7       34383.3       22233.7      
200           198247        149524        109314        81047.8       64186.9       55118         49936.6       45727         40428.2       32545.1       21319.5      
250           201231        157105        118989        89793         70199         58314.3       51005.5       45373.3       39253.9       31219.5       20686.6      
300           203425        162788        126655        97402.5       76078.3       61865.1       52509.8       45427.5       38487         30277.9       20239.1      
350           205119        167226        132848        103930        81568.4       65544.9       54352         45858.2       38084.4       29641.2       19927.1      
400           206467        170793        137941        109523        86571.9       69190.9       56425         46610.9       38000.3       29257         19721.8      
450           207569        173723        142195        114333        91079.9       72701.6       58630.9       47620.6       38187.7       29083.8       19602.8      
500           208485        176173        145794        118496        95123.8       76023.8       60892.4       48823.8       38600.3       29088.4       19556        
550           209258        178248        148875        122123        98749.8       79135.2       63153.1       50164.6       39195.1       29242.2       19569.7      
600           209920        180027        151539        125306        102007        82031.9       65373.2       51594.7       39932.6       29519.3       19634.1      
650           210491        181568        153863        128117        104941        84721         67527.2       53075.4       40777.7       29895.6       19740.2      
700           210989        182916        155908        130616        107594        87214.2       69598.7       54575.6       41699.8       30350.1       19879.9      
750           211427        184104        157718        132850        110000        89525.6       71579.3       56072.5       42673.1       30864         20045.9      
800           211815        185158        159335        134860        112192        91669.3       73464         57547.1       43675.5       31420.1       20231.8      
850           212161        186100        160784        136677        114195        93659.1       75251.8       58986.7       44689.3       32004.4       20431.9      
900           212473        186948        162092        138327        116031        95507.7       76943.4       60381.6       45699.9       32604.5       20641.2      
950           212754        187714        163279        139831        117719        97226.8       78540.7       61724.3       46695.1       33209.6       20855.5      
1000          213009        188410        164359        141208        119275        98826.7       80046.5       63011         47667.1       33812.1       21071.1      
1050          213241        189045        165347        142471        120712        100317        81464         64238.7       48608.9       34405.2       21285.1      
1100          213453        189625        166253        143635        122041        101705        82796.9       65406         49516.1       34983.2       21495.4      
1150          213647        190157        167087        144708        123273        102999        84048.9       66512.5       50384.8       35542.2       21700        
1200          213826        190647        167855        145701        124417        104206        85223.8       67558.3       51212.8       36078.9       21897.7      
1250          213991        191100        168566        146620        125479        105332        86325.3       68544.9       51998.6       36592.2       22086.9      
1300          214144        191519        169224        147473        126467        106383        87357.3       69473.3       52742.4       37079.8       22267.9      
1350          214285        191906        169834        148264        127386        107363        88323.2       70345.8       53444.1       37542         22439.5      
1400          214416        192266        170399        149000        128242        108278        89226.6       71164.4       54104.5       37978.8       22601.7      
1450          214538        192600        170925        149685        129039        109131        90071.2       71931.3       54724.8       38389.9       22754.9      
1500          214651        192910        171414        150322        129782        109926        90860         72649         55306.6       38776.1       22899        
1550          214756        193199        171870        150915        130473        110668        91596.6       73320         55851.1       39138         23034.6      
1600          214854        193468        172292        151466        131117        111359        92283.7       73946.8       56360.8       39478.4       23161.7      
1650          214945        193718        172687        151980        131717        112004        92924.5       74531.6       56836.5       39794.8       23279.9      
1700          215029        193950        173053        152458        132276        112604        93521.9       75077.1       57280.5       40090.6       23390.6      
1750          215108        194167        173395        152904        132796        113164        94078.5       75585.6       57694.6       40366.7       23494        
1800          215181        194368        173712        153318        133280        113684        94596.8       76059.3       58080.4       40624.4       23590.6      
1850          215250        194556        174008        153704        133731        114169        95079.3       76500.3       58439.8       40864.8       23680.9      
1900          215313        194730        174283        154063        134151        114620        95528.4       76910.8       58774.3       41087.8       23764.3      
1950          215373        194893        174540        154397        134541        115040        95946.2       77292.7       59085.4       41295.8       23842.4      
2000          215427        195043        174778        154708        134905        115430        96334.8       77647.8       59374.7       41488.7       23914.5      
2050          215479        195185        175000        154997        135242        115794        96696.1       77977.9       59643.6       41668.1       23981.7      
2100          215525        195313        175205        155266        135557        116131        97032         78284.7       59893.6       41835.2       24044.6      
2150          215571        195439        175399        155517        135849        116445        97344.1       78569.8       60125.5       41989.7       24102.1      
2200          215611        195547        175575        155749        136120        116737        97634.1       78834.6       60341.2       42134         24156.3      
2250          215651        195657        175744        155966        136373        117008        97903.6       79080.5       60541.3       42267         24206        
2300          215684        195750        175894        156165        136607        117259        98153.8       79308.9       60727.2       42391.1       24252.5      
2350          215720        195847        176042        156353        136825        117493        98386.1       79520.9       60899.7       42506.2       24295.5      
2400          215748        195925        176170        156525        137027        117710        98601.9       79717.7       61059.8       42613.1       24335.4      
2450          215780        196010        176299        156688        137215        117912        98802.1       79900.4       61208.5       42711.9       24372.6      
2500          215803        196075        176408        156836        137389        118099        98988         80070         61346.2       42804.1       24407.4      
2550          215831        196151        176521        156976        137551        118273        99160.5       80227.2       61474.4       42889.2       24439.3      
2600          215850        196206        176613        157103        137701        118434        99320.5       80373.2       61592.8       42968.5       24468.6      
2650          215875        196272        176712        157225        137841        118583        99469         80508.5       61703         43041.6       24496.2      
2700          215891        196319        176791        157333        137970        118722        99606.9       80634.2       61805.1       43109.7       24521.5      
2750          215913        196377        176876        157439        138091        118851        99734.7       80750.7       61899.9       43172.7       24545.5      
2800          215926        196415        176943        157532        138202        118971        99853.3       80858.8       61987.7       43231.8       24567.2      
2850          215946        196467        177018        157624        138306        119081        99963.4       80958.9       62069.1       43285.5       24587.9      
2900          215957        196498        177074        157703        138401        119184        100065        81052         62144.5       43336.3       24606.5      
2950          215975        196545        177140        157782        138491        119280        100160        81138.3       62214.7       43382.7       24624.1      
3000          215983        196570        177187        157850        138572        119368        100248        81218.2       62279.7       43425.8       24640.3      
3050          215999        196611        177245        157919        138650        119450        100329        81292.4       62339.7       43466.1       24655.3      
3100          216005        196631        177284        157977        138720        119526        100404        81360.8       62395.2       43503.6       24669        
3150          216020        196669        177335        158036        138786        119597        100474        81424.8       62447.3       43537.8       24682.1      
3200          216025        196685        177368        158085        138847        119662        100539        81483.7       62495.4       43569.7       24694        
3250          216038        196718        177413        158138        138904        119723        100599        81538.5       62539.9       43599.4       24705.1      
3300          216041        196731        177440        158179        138956        119779        100655        81589.1       62581         43626.6       24715.6      
3350          216053        196760        177480        158224        139005        119831        100707        81636.2       62619.3       43652.2       24725.1      
3400          216056        196770        177502        158260        139049        119879        100754        81679.6       62654.4       43675.6       24733.9      
3450          216067        196797        177537        158299        139092        119924        100799        81720.1       62687.2       43697.7       24741.9      
3500          216068        196804        177555        158329        139130        119965        100840        81757.5       62717.8       43717.7       24749.6      
3550          216079        196828        177586        158362        139166        120003        100878        81791.8       62745.7       43736.2       24756.7      
3600          216078        196831        177601        158388        139198        120037        100912        81822.8       62770.9       43753.2       24762.9      
3650          216088        196855        177628        158417        139230        120072        100945        81853.4       62795.7       43769.7       24769.1      
3700          216087        196856        177641        158439        139257        120100        100974        81879.6       62817.1       43783.9       24774.5      
3750          216096        196878        177664        158464        139285        120130        101003        81906.2       62838.5       43798.4       24779.7      
3800          216095        196879        177675        158483        139308        120155        101028        81928.9       62857         43810.6       24784.4      
3850          216103        196897        177695        158504        139331        120180        101053        81951.4       62875.3       43822.7       24788.9      
3900          216102        196898        177703        158521        139352        120202        101075        81971.5       62891.6       43833.5       24793        
3950          216109        196913        177721        158539        139372        120224        101097        81990.9       62907.2       43843.9       24796.9      
4000          216108        196914        177729        158553        139390        120243        101115        82007.7       62921         43853.1       24800.4      
4050          216114        196928        177744        158569        139407        120261        101133        82024.3       62934.4       43862         24803.7      
4100          216113        196928        177751        158581        139422        120277        101149        82038.5       62946         43869.7       24806.8      
4150          216119        196940        177763        158594        139437        120294        101165        82053         62957.7       43877.6       24809.5      
4200          216118        196940        177770        158605        139449        120307        101178        82065.4       62967.7       43884.2       24812        
4250          216122        196951        177779        158616        139463        120321        101192        82077.8       62977.6       43890.9       24814.5      
4300          216121        196950        177785        158625        139473        120332        101204        82088.5       62986.5       43896.8       24816.9      
4350          216125        196959        177794        158635        139485        120345        101216        82099.3       62995.3       43902.6       24818.8      
4400          216125        196959        177799        158643        139494        120354        101226        82108.5       63002.6       43907.3       24820.7      
4450          216128        196967        177806        158651        139504        120365        101236        82117.9       63010.3       43912.3       24822.8      
4500          216128        196967        177811        158658        139512        120373        101245        82125.6       63016.5       43916.8       24824.2      
4550          216131        196973        177817        158665        139520        120382        101254        82133.7       63023         43921.1       24825.6      
4600          216130        196974        177821        158671        139527        120390        101261        82140.3       63028.5       43924.7       24827.2      
4650          216133        196979        177826        158677        139534        120398        101268        82147.2       63034.2       43928.4       24828.6      
4700          216133        196980        177829        158682        139539        120403        101274        82152.1       63038.1       43931         24829.2      
4750          216134        196983        177834        158688        139546        120410        101281        82158.7       63043.4       43934.6       24830.8      
4800          216135        196985        177837        158692        139551        120415        101286        82162.9       63046.8       43936.8       24831.5      
4850          216135        196987        177841        158697        139557        120422        101292        82168.7       63051.4       43940.1       24833        
4900          216136        196989        177843        158700        139560        120426        101296        82172.4       63054.4       43942         24833.7      
4950          216137        196991        177847        158704        139566        120431        101302        82177.4       63058.6       43944.5       24834.7      
5000          216137        196992        177849        158707        139569        120435        101306        82181.1       63061.5       43946.6       24835.5      
