# Probe 0 (0.0015 0.0015 0)
# Probe 1 (0.0015 0.0015 0.002)
# Probe 2 (0.0015 0.0015 0.004)
# Probe 3 (0.0015 0.0015 0.006)
# Probe 4 (0.0015 0.0015 0.008)
# Probe 5 (0.0015 0.0015 0.01)
# Probe 6 (0.0015 0.0015 0.012)
# Probe 7 (0.0015 0.0015 0.014)
# Probe 8 (0.0015 0.0015 0.016)
# Probe 9 (0.0015 0.0015 0.018)
# Probe 10 (0.0015 0.0015 0.02)
# Time        0             1             2             3             4             5             6             7             8             9             10           
50            27100.3       27100.3       27100.3       27100.3       27100.3       27100.3       27100.3       27100.3       27100.3       27100.3       27100.3      
100           27100.3       27100.3       27100.3       27100.3       27100.3       27100.3       27100.3       27100.3       27100.3       27100.3       27100.3      
150           27100.3       27100.3       27100.3       27100.3       27100.3       27100.3       27100.3       27100.3       27100.3       27100.3       27100.3      
200           27100.3       27100.3       27100.3       27100.3       27100.3       27100.3       27100.3       27100.3       27100.3       27100.3       27100.3      
250           27100.3       27100.3       27100.3       27100.3       27100.3       27100.3       27100.3       27100.3       27100.3       27100.3       27100.3      
300           27100.3       27100.3       27100.3       27100.3       27100.3       27100.3       27100.3       27100.3       27100.3       27100.3       27100.3      
350           27100.3       27100.3       27100.3       27100.3       27100.3       27100.3       27100.3       27100.3       27100.3       27100.3       27100.3      
400           27100.3       27100.3       27100.3       27100.3       27100.3       27100.3       27100.3       27100.3       27100.3       27100.3       27100.3      
450           27100.3       27100.3       27100.3       27100.3       27100.3       27100.3       27100.3       27100.3       27100.3       27100.3       27100.3      
500           27100.3       27100.3       27100.3       27100.3       27100.3       27100.3       27100.3       27100.3       27100.3       27100.3       27100.3      
550           27100.3       27100.3       27100.3       27100.3       27100.3       27100.3       27100.3       27100.3       27100.3       27100.3       27100.3      
600           27100.3       27100.3       27100.3       27100.3       27100.3       27100.3       27100.3       27100.3       27100.3       27100.3       27100.3      
650           27100.3       27100.3       27100.3       27100.3       27100.3       27100.3       27100.3       27100.3       27100.3       27100.3       27100.3      
700           27100.3       27100.3       27100.3       27100.3       27100.3       27100.3       27100.3       27100.3       27100.3       27100.3       27100.3      
750           27100.3       27100.3       27100.3       27100.3       27100.3       27100.3       27100.3       27100.3       27100.3       27100.3       27100.3      
800           27100.3       27100.3       27100.3       27100.3       27100.3       27100.3       27100.3       27100.3       27100.3       27100.3       27100.3      
850           27100.3       27100.3       27100.3       27100.3       27100.3       27100.3       27100.3       27100.3       27100.3       27100.3       27100.3      
900           27100.3       27100.3       27100.3       27100.3       27100.3       27100.3       27100.3       27100.3       27100.3       27100.3       27100.3      
950           27100.3       27100.3       27100.3       27100.3       27100.3       27100.3       27100.3       27100.3       27100.3       27100.3       27100.3      
1000          27100.3       27100.3       27100.3       27100.3       27100.3       27100.3       27100.3       27100.3       27100.3       27100.3       27100.3      
1050          27100.3       27100.3       27100.3       27100.3       27100.3       27100.3       27100.3       27100.3       27100.3       27100.3       27100.3      
1100          27100.3       27100.3       27100.3       27100.3       27100.3       27100.3       27100.3       27100.3       27100.3       27100.3       27100.3      
1150          27100.3       27100.3       27100.3       27100.3       27100.3       27100.3       27100.3       27100.3       27100.3       27100.3       27100.3      
1200          27100.3       27100.3       27100.3       27100.3       27100.3       27100.3       27100.3       27100.3       27100.3       27100.3       27100.3      
1250          27100.3       27100.3       27100.3       27100.3       27100.3       27100.3       27100.3       27100.3       27100.3       27100.3       27100.3      
1300          27100.3       27100.3       27100.3       27100.3       27100.3       27100.3       27100.3       27100.3       27100.3       27100.3       27100.3      
1350          27100.3       27100.3       27100.3       27100.3       27100.3       27100.3       27100.3       27100.3       27100.3       27100.3       27100.3      
1400          27100.3       27100.3       27100.3       27100.3       27100.3       27100.3       27100.3       27100.3       27100.3       27100.3       27100.3      
1450          27100.3       27100.3       27100.3       27100.3       27100.3       27100.3       27100.3       27100.3       27100.3       27100.3       27100.3      
1500          27100.3       27100.3       27100.3       27100.3       27100.3       27100.3       27100.3       27100.3       27100.3       27100.3       27100.3      
1550          27100.3       27100.3       27100.3       27100.3       27100.3       27100.3       27100.3       27100.3       27100.3       27100.3       27100.3      
1600          27100.3       27100.3       27100.3       27100.3       27100.3       27100.3       27100.3       27100.3       27100.3       27100.3       27100.3      
1650          27100.3       27100.3       27100.3       27100.3       27100.3       27100.3       27100.3       27100.3       27100.3       27100.3       27100.3      
1700          27100.3       27100.3       27100.3       27100.3       27100.3       27100.3       27100.3       27100.3       27100.3       27100.3       27100.3      
1750          27100.3       27100.3       27100.3       27100.3       27100.3       27100.3       27100.3       27100.3       27100.3       27100.3       27100.3      
1800          27100.3       27100.3       27100.3       27100.3       27100.3       27100.3       27100.3       27100.3       27100.3       27100.3       27100.3      
1850          27100.3       27100.3       27100.3       27100.3       27100.3       27100.3       27100.3       27100.3       27100.3       27100.3       27100.3      
1900          27100.3       27100.3       27100.3       27100.3       27100.3       27100.3       27100.3       27100.3       27100.3       27100.3       27100.3      
1950          27100.3       27100.3       27100.3       27100.3       27100.3       27100.3       27100.3       27100.3       27100.3       27100.3       27100.3      
2000          27100.3       27100.3       27100.3       27100.3       27100.3       27100.3       27100.3       27100.3       27100.3       27100.3       27100.3      
2050          27100.3       27100.3       27100.3       27100.3       27100.3       27100.3       27100.3       27100.3       27100.3       27100.3       27100.3      
2100          27100.3       27100.3       27100.3       27100.3       27100.3       27100.3       27100.3       27100.3       27100.3       27100.3       27100.3      
2150          27100.3       27100.3       27100.3       27100.3       27100.3       27100.3       27100.3       27100.3       27100.3       27100.3       27100.3      
2200          27100.3       27100.3       27100.3       27100.3       27100.3       27100.3       27100.3       27100.3       27100.3       27100.3       27100.3      
2250          27100.3       27100.3       27100.3       27100.3       27100.3       27100.3       27100.3       27100.3       27100.3       27100.3       27100.3      
2300          27100.3       27100.3       27100.3       27100.3       27100.3       27100.3       27100.3       27100.3       27100.3       27100.3       27100.3      
2350          27100.3       27100.3       27100.3       27100.3       27100.3       27100.3       27100.3       27100.3       27100.3       27100.3       27100.3      
2400          27100.3       27100.3       27100.3       27100.3       27100.3       27100.3       27100.3       27100.3       27100.3       27100.3       27100.3      
2450          27100.3       27100.3       27100.3       27100.3       27100.3       27100.3       27100.3       27100.3       27100.3       27100.3       27100.3      
2500          27100.3       27100.3       27100.3       27100.3       27100.3       27100.3       27100.3       27100.3       27100.3       27100.3       27100.3      
2550          27100.3       27100.3       27100.3       27100.3       27100.3       27100.3       27100.3       27100.3       27100.3       27100.3       27100.3      
2600          27100.3       27100.3       27100.3       27100.3       27100.3       27100.3       27100.3       27100.3       27100.3       27100.3       27100.3      
2650          27100.3       27100.3       27100.3       27100.3       27100.3       27100.3       27100.3       27100.3       27100.3       27100.3       27100.3      
2700          27100.3       27100.3       27100.3       27100.3       27100.3       27100.3       27100.3       27100.3       27100.3       27100.3       27100.3      
2750          27100.3       27100.3       27100.3       27100.3       27100.3       27100.3       27100.3       27100.3       27100.3       27100.3       27100.3      
2800          27100.3       27100.3       27100.3       27100.3       27100.3       27100.3       27100.3       27100.3       27100.3       27100.3       27100.3      
2850          27100.3       27100.3       27100.3       27100.3       27100.3       27100.3       27100.3       27100.3       27100.3       27100.3       27100.3      
2900          27100.3       27100.3       27100.3       27100.3       27100.3       27100.3       27100.3       27100.3       27100.3       27100.3       27100.3      
2950          27100.3       27100.3       27100.3       27100.3       27100.3       27100.3       27100.3       27100.3       27100.3       27100.3       27100.3      
3000          27100.3       27100.3       27100.3       27100.3       27100.3       27100.3       27100.3       27100.3       27100.3       27100.3       27100.3      
3050          27100.3       27100.3       27100.3       27100.3       27100.3       27100.3       27100.3       27100.3       27100.3       27100.3       27100.3      
3100          27100.3       27100.3       27100.3       27100.3       27100.3       27100.3       27100.3       27100.3       27100.3       27100.3       27100.3      
3150          27100.3       27100.3       27100.3       27100.3       27100.3       27100.3       27100.3       27100.3       27100.3       27100.3       27100.3      
3200          27100.3       27100.3       27100.3       27100.3       27100.3       27100.3       27100.3       27100.3       27100.3       27100.3       27100.3      
3250          27100.3       27100.3       27100.3       27100.3       27100.3       27100.3       27100.3       27100.3       27100.3       27100.3       27100.3      
3300          27100.3       27100.3       27100.3       27100.3       27100.3       27100.3       27100.3       27100.3       27100.3       27100.3       27100.3      
3350          27100.3       27100.3       27100.3       27100.3       27100.3       27100.3       27100.3       27100.3       27100.3       27100.3       27100.3      
3400          27100.3       27100.3       27100.3       27100.3       27100.3       27100.3       27100.3       27100.3       27100.3       27100.3       27100.3      
3450          27100.3       27100.3       27100.3       27100.3       27100.3       27100.3       27100.3       27100.3       27100.3       27100.3       27100.3      
3500          27100.3       27100.3       27100.3       27100.3       27100.3       27100.3       27100.3       27100.3       27100.3       27100.3       27100.3      
3550          27100.3       27100.3       27100.3       27100.3       27100.3       27100.3       27100.3       27100.3       27100.3       27100.3       27100.3      
3600          27100.3       27100.3       27100.3       27100.3       27100.3       27100.3       27100.3       27100.3       27100.3       27100.3       27100.3      
3650          27100.3       27100.3       27100.3       27100.3       27100.3       27100.3       27100.3       27100.3       27100.3       27100.3       27100.3      
3700          27100.3       27100.3       27100.3       27100.3       27100.3       27100.3       27100.3       27100.3       27100.3       27100.3       27100.3      
3750          27100.3       27100.3       27100.3       27100.3       27100.3       27100.3       27100.3       27100.3       27100.3       27100.3       27100.3      
3800          27100.3       27100.3       27100.3       27100.3       27100.3       27100.3       27100.3       27100.3       27100.3       27100.3       27100.3      
3850          27100.3       27100.3       27100.3       27100.3       27100.3       27100.3       27100.3       27100.3       27100.3       27100.3       27100.3      
3900          27100.3       27100.3       27100.3       27100.3       27100.3       27100.3       27100.3       27100.3       27100.3       27100.3       27100.3      
3950          27100.3       27100.3       27100.3       27100.3       27100.3       27100.3       27100.3       27100.3       27100.3       27100.3       27100.3      
4000          27100.3       27100.3       27100.3       27100.3       27100.3       27100.3       27100.3       27100.3       27100.3       27100.3       27100.3      
4050          27100.3       27100.3       27100.3       27100.3       27100.3       27100.3       27100.3       27100.3       27100.3       27100.3       27100.3      
4100          27100.3       27100.3       27100.3       27100.3       27100.3       27100.3       27100.3       27100.3       27100.3       27100.3       27100.3      
4150          27100.3       27100.3       27100.3       27100.3       27100.3       27100.3       27100.3       27100.3       27100.3       27100.3       27100.3      
4200          27100.3       27100.3       27100.3       27100.3       27100.3       27100.3       27100.3       27100.3       27100.3       27100.3       27100.3      
4250          27100.3       27100.3       27100.3       27100.3       27100.3       27100.3       27100.3       27100.3       27100.3       27100.3       27100.3      
4300          27100.3       27100.3       27100.3       27100.3       27100.3       27100.3       27100.3       27100.3       27100.3       27100.3       27100.3      
4350          27100.3       27100.3       27100.3       27100.3       27100.3       27100.3       27100.3       27100.3       27100.3       27100.3       27100.3      
4400          27100.3       27100.3       27100.3       27100.3       27100.3       27100.3       27100.3       27100.3       27100.3       27100.3       27100.3      
4450          27100.3       27100.3       27100.3       27100.3       27100.3       27100.3       27100.3       27100.3       27100.3       27100.3       27100.3      
4500          27100.3       27100.3       27100.3       27100.3       27100.3       27100.3       27100.3       27100.3       27100.3       27100.3       27100.3      
4550          27100.3       27100.3       27100.3       27100.3       27100.3       27100.3       27100.3       27100.3       27100.3       27100.3       27100.3      
4600          27100.3       27100.3       27100.3       27100.3       27100.3       27100.3       27100.3       27100.3       27100.3       27100.3       27100.3      
4650          27100.3       27100.3       27100.3       27100.3       27100.3       27100.3       27100.3       27100.3       27100.3       27100.3       27100.3      
4700          27100.3       27100.3       27100.3       27100.3       27100.3       27100.3       27100.3       27100.3       27100.3       27100.3       27100.3      
4750          27100.3       27100.3       27100.3       27100.3       27100.3       27100.3       27100.3       27100.3       27100.3       27100.3       27100.3      
4800          27100.3       27100.3       27100.3       27100.3       27100.3       27100.3       27100.3       27100.3       27100.3       27100.3       27100.3      
4850          27100.3       27100.3       27100.3       27100.3       27100.3       27100.3       27100.3       27100.3       27100.3       27100.3       27100.3      
4900          27100.3       27100.3       27100.3       27100.3       27100.3       27100.3       27100.3       27100.3       27100.3       27100.3       27100.3      
4950          27100.3       27100.3       27100.3       27100.3       27100.3       27100.3       27100.3       27100.3       27100.3       27100.3       27100.3      
5000          27100.3       27100.3       27100.3       27100.3       27100.3       27100.3       27100.3       27100.3       27100.3       27100.3       27100.3      
