# Probe 0 (0.0015 0.0015 0)
# Probe 1 (0.0015 0.0015 0.002)
# Probe 2 (0.0015 0.0015 0.004)
# Probe 3 (0.0015 0.0015 0.006)
# Probe 4 (0.0015 0.0015 0.008)
# Probe 5 (0.0015 0.0015 0.01)
# Probe 6 (0.0015 0.0015 0.012)
# Probe 7 (0.0015 0.0015 0.014)
# Probe 8 (0.0015 0.0015 0.016)
# Probe 9 (0.0015 0.0015 0.018)
# Probe 10 (0.0015 0.0015 0.02)
# Time        0             1             2             3             4             5             6             7             8             9             10           
50            (1.38778e-07 6.93889e-08 -3.10191e+07) (-1.73472e-08 0 -1.52073e+07) (-6.93889e-08 -4.25007e-07 -5.3731e+06) (-2.34188e-07 1.21431e-07 -1.70889e+06) (-1.9082e-07 3.1225e-07 -524312) (1.73472e-07 -8.67362e-09 -184312) (8.67362e-08 4.33681e-08 -155662) (-1.12757e-07 -3.03577e-07 -368229) (-1.73472e-07 -1.9082e-07 -1.06086e+06) (2.51535e-07 1.56125e-07 -2.8643e+06) (-2.60209e-08 -6.93889e-08 -6.6938e+06)
100           (3.46945e-08 0 -2.23697e+07) (3.1225e-07 3.46945e-08 -1.6651e+07) (6.93889e-08 0 -8.88611e+06) (1.21431e-07 9.54098e-08 -3.80563e+06) (8.67362e-09 -4.33681e-08 -1.47611e+06) (-1.73472e-08 -8.67362e-08 -606971) (-1.73472e-08 4.33681e-08 -428470) (-9.54098e-08 -3.46945e-08 -700434) (-6.07153e-08 8.67362e-09 -1.50639e+06) (-1.30104e-07 -8.67362e-09 -3.05583e+06) (3.03577e-08 2.1684e-08 -5.25994e+06)
150           (-9.71445e-07 -1.35308e-06 -1.83017e+07) (3.81639e-07 -4.68375e-07 -1.53792e+07) (-1.00614e-06 1.09288e-06 -1.04011e+07) (2.42861e-07 3.20924e-07 -5.64605e+06) (-1.12757e-07 3.90313e-07 -2.66138e+06) (-1.56125e-07 1.99493e-07 -1.25823e+06) (-1.22298e-06 1.30972e-06 -834263) (-1.18829e-06 1.17094e-06 -1.04264e+06) (-7.02563e-07 6.85216e-07 -1.78858e+06) (5.63785e-08 -7.37257e-08 -3.03217e+06) (1.68615e-05 1.91427e-05 -4.47742e+06)
200           (-2.98372e-06 -3.08781e-06 -1.58752e+07) (8.67362e-07 -6.93889e-07 -1.4039e+07) (3.1225e-07 -3.81639e-07 -1.06987e+07) (-1.38778e-07 6.93889e-08 -6.85633e+06) (-3.90313e-07 1.9082e-07 -3.79819e+06) (-3.29597e-07 3.20924e-07 -2.02869e+06) (4.33681e-08 6.07153e-08 -1.33019e+06) (2.08167e-07 -2.94903e-07 -1.38243e+06) (-3.46945e-08 -1.73472e-08 -1.97928e+06) (-1.34441e-07 1.12757e-07 -2.95093e+06) (8.19657e-07 -1.35308e-06 -3.9694e+06)
250           (-2.08167e-07 -1.38778e-07 -1.42165e+07) (-4.51028e-07 -6.59195e-07 -1.29348e+07) (-8.1532e-07 -6.245e-07 -1.0537e+07) (-6.59195e-07 -5.72459e-07 -7.5237e+06) (-4.68375e-07 -5.0307e-07 -4.72799e+06) (-1.12757e-07 -4.42354e-07 -2.80745e+06) (-1.82146e-07 -8.67362e-08 -1.87317e+06) (0 8.67362e-08 -1.72824e+06) (2.1684e-07 -6.93889e-08 -2.13835e+06) (1.73472e-08 5.20417e-08 -2.87476e+06) (1.30104e-08 1.73472e-08 -3.61765e+06)
300           (7.63278e-07 5.89806e-07 -1.29975e+07) (1.63064e-06 2.04697e-06 -1.20424e+07) (2.67147e-06 3.01842e-06 -1.02306e+07) (6.59195e-07 6.07153e-07 -7.84589e+06) (1.17961e-06 1.27502e-06 -5.41708e+06) (6.07153e-08 -1.30104e-07 -3.51522e+06) (-2.86229e-07 -2.51535e-07 -2.42012e+06) (2.08167e-07 2.08167e-07 -2.07999e+06) (-3.20924e-07 -2.77556e-07 -2.2947e+06) (-1.77809e-07 -1.17094e-07 -2.82442e+06) (9.1073e-08 5.63785e-08 -3.36908e+06)
350           (7.28584e-07 5.20417e-07 -1.20573e+07) (-6.93889e-07 -5.55112e-07 -1.13145e+07) (4.85723e-07 8.1532e-07 -9.89406e+06) (-4.16334e-07 2.42861e-07 -7.973e+06) (-1.21431e-07 -5.20417e-08 -5.90003e+06) (0 -5.89806e-07 -4.11414e+06) (-1.56125e-07 -1.21431e-07 -2.93755e+06) (-1.47451e-07 -1.99493e-07 -2.43088e+06) (-1.60462e-07 1.30104e-07 -2.45985e+06) (-1.21431e-07 -1.04083e-07 -2.80596e+06) (-7.37257e-08 -1.04083e-07 -3.19585e+06)
400           (-6.245e-07 -7.28584e-07 -1.13075e+07) (-7.63278e-07 2.08167e-07 -1.07125e+07) (1.5439e-06 -1.47451e-06 -9.56796e+06) (9.36751e-07 -1.40513e-06 -7.99344e+06) (-1.52656e-06 7.80626e-07 -6.22731e+06) (0 -6.67869e-07 -4.59795e+06) (9.36751e-07 -1.33574e-06 -3.40404e+06) (1.04083e-07 -2.86229e-07 -2.77147e+06) (-6.28837e-07 6.15827e-07 -2.6357e+06) (-7.41594e-07 8.37004e-07 -2.81888e+06) (1.83447e-06 1.82146e-06 -3.08159e+06)
450           (-2.08167e-07 -6.93889e-08 -1.06954e+07) (-1.04083e-06 1.31839e-06 -1.02077e+07) (2.94903e-07 -2.60209e-07 -9.26633e+06) (-1.83881e-06 2.77556e-07 -7.95535e+06) (-3.29597e-07 -3.81639e-07 -6.44434e+06) (-1.37043e-06 -1.12757e-07 -4.97816e+06) (-6.93889e-08 1.04083e-07 -3.81046e+06) (-6.76542e-07 5.0307e-07 -3.09301e+06) (-4.03323e-07 -4.33681e-08 -2.81967e+06) (2.42861e-07 6.93889e-08 -2.86074e+06) (-8.10983e-07 -8.37004e-07 -3.01549e+06)
500           (3.05311e-06 2.94903e-06 -1.01863e+07) (-4.51028e-07 1.00614e-06 -9.77939e+06) (-2.61943e-06 1.49186e-06 -8.99238e+06) (2.94903e-07 3.46945e-08 -7.88554e+06) (5.55112e-07 -3.64292e-07 -6.58402e+06) (6.85216e-07 -7.54605e-07 -5.27178e+06) (-3.55618e-07 3.81639e-07 -4.15603e+06) (-5.72459e-07 3.98986e-07 -3.38963e+06) (1.17094e-07 -5.0307e-07 -3.00745e+06) (2.08167e-07 -1.69136e-07 -2.92718e+06) (-7.31186e-06 -7.31186e-06 -2.98946e+06)
550           (0 3.46945e-08 -9.75644e+06) (-3.71231e-06 6.31439e-06 -9.41217e+06) (5.01335e-06 -4.33681e-07 -8.74478e+06) (1.04083e-07 2.98372e-06 -7.79921e+06) (3.08781e-06 3.72966e-06 -6.66953e+06) (1.12757e-06 2.41127e-06 -5.4959e+06) (6.93889e-08 3.29597e-07 -4.44499e+06) (3.64292e-07 6.93889e-07 -3.65808e+06) (-1.56125e-07 9.71445e-07 -3.19466e+06) (-4.33681e-09 1.82146e-07 -3.01356e+06) (-3.1225e-07 -4.77049e-07 -2.99711e+06)
600           (-3.1225e-07 -4.16334e-07 -9.38913e+06) (8.67362e-07 9.36751e-07 -9.09426e+06) (3.88578e-06 3.85109e-06 -8.5213e+06) (2.91434e-06 2.93168e-06 -7.70569e+06) (3.43475e-06 3.38271e-06 -6.71706e+06) (2.75821e-06 2.77556e-06 -5.66549e+06) (1.75207e-06 1.72605e-06 -4.68403e+06) (1.43982e-06 1.43982e-06 -3.89752e+06) (5.29091e-07 4.94396e-07 -3.37743e+06) (2.34188e-07 2.34188e-07 -3.11536e+06) (5.24754e-07 3.25261e-07 -3.03292e+06)
650           (-5.55112e-07 -5.55112e-07 -9.0718e+06) (-2.18575e-06 -2.25514e-06 -8.81642e+06) (-3.64292e-06 -3.48679e-06 -8.31973e+06) (-3.7817e-06 -3.72966e-06 -7.60887e+06) (-4.52763e-06 -4.49293e-06 -6.73773e+06) (-3.69496e-06 -3.71231e-06 -5.79267e+06) (-2.92301e-06 -2.9577e-06 -4.88052e+06) (-2.02095e-06 -1.97758e-06 -4.10897e+06) (-9.71445e-07 -9.88792e-07 -3.55313e+06) (-3.68629e-07 -3.59955e-07 -3.22857e+06) (-5.63785e-08 -3.46945e-08 -3.09184e+06)
700           (-1.04083e-07 0 -8.79493e+06) (-3.1225e-07 -6.93889e-08 -8.57201e+06) (3.81639e-07 6.07153e-07 -8.13663e+06) (1.73472e-08 8.67362e-08 -7.51217e+06) (-3.46945e-08 1.73472e-08 -6.73953e+06) (-1.38778e-07 2.94903e-07 -5.88713e+06) (-5.20417e-08 1.30104e-07 -5.04154e+06) (-1.47451e-07 8.67362e-09 -4.29457e+06) (5.20417e-08 -8.67362e-09 -3.71972e+06) (1.9082e-07 -1.86483e-07 -3.34939e+06) (-2.1684e-08 -2.60209e-08 -3.16948e+06)
750           (-6.93889e-08 3.46945e-08 -8.55148e+06) (2.42861e-07 -4.16334e-07 -8.35487e+06) (-1.35308e-06 1.2837e-06 -7.9715e+06) (2.42861e-07 -4.51028e-07 -7.41815e+06) (-4.33681e-07 1.9082e-07 -6.72806e+06) (8.67362e-08 -3.46945e-07 -5.95623e+06) (-6.245e-07 3.64292e-07 -5.17316e+06) (-8.58688e-07 6.15827e-07 -4.45674e+06) (1.38778e-07 -2.60209e-07 -3.87657e+06) (2.38524e-07 -2.08167e-07 -3.47492e+06) (4.33681e-09 4.33681e-09 -3.26173e+06)
800           (0 -3.46945e-08 -8.33573e+06) (-3.81639e-07 1.38778e-07 -8.16129e+06) (-6.93889e-08 1.38778e-07 -7.82022e+06) (-2.23779e-06 2.28983e-06 -7.32683e+06) (-1.31839e-06 1.05818e-06 -6.70718e+06) (-1.02349e-06 6.41848e-07 -6.0059e+06) (-4.25007e-07 2.08167e-07 -5.28093e+06) (1.38778e-07 -4.33681e-07 -4.59851e+06) (2.1684e-07 -2.77556e-07 -4.02276e+06) (-5.20417e-08 -3.03577e-08 -3.60243e+06) (-1.73472e-08 -4.77049e-08 -3.36508e+06)
850           (-6.93889e-08 -3.46945e-08 -8.14318e+06) (-1.56125e-06 -1.17961e-06 -7.98735e+06) (-1.80411e-06 -2.35922e-06 -7.68233e+06) (-2.60209e-06 -2.8276e-06 -7.23952e+06) (-2.498e-06 -3.19189e-06 -6.68006e+06) (-2.96638e-06 -2.91434e-06 -6.0406e+06) (-2.7929e-06 -2.29851e-06 -5.3692e+06) (-1.94289e-06 -2.19443e-06 -4.72245e+06) (-1.35308e-06 -1.32706e-06 -4.15886e+06) (-7.41594e-07 -9.15067e-07 -3.72988e+06) (-8.67362e-09 -1.73472e-08 -3.47628e+06)
900           (-1.04083e-07 -6.93889e-08 -7.97034e+06) (9.36751e-07 -7.28584e-07 -7.83024e+06) (3.81639e-07 -6.59195e-07 -7.55591e+06) (-2.60209e-07 3.81639e-07 -7.1563e+06) (-1.11022e-06 4.85723e-07 -6.64884e+06) (-5.55112e-07 1.21431e-07 -6.06385e+06) (6.07153e-08 -1.73472e-07 -5.44172e+06) (-4.94396e-07 -2.77556e-07 -4.83114e+06) (-2.08167e-07 4.33681e-08 -4.2851e+06) (-1.95156e-07 -7.80626e-08 -3.85562e+06) (-1.47451e-07 -3.59955e-07 -3.5926e+06)
950           (-3.46945e-08 -6.93889e-08 -7.8145e+06) (1.21431e-06 -8.32667e-07 -7.68748e+06) (-3.08781e-06 -6.59195e-07 -7.44025e+06) (-2.60209e-07 1.97758e-06 -7.0772e+06) (-9.02056e-07 4.51028e-07 -6.61494e+06) (-1.73472e-08 5.55112e-07 -6.07837e+06) (1.00614e-06 2.25514e-07 -5.5016e+06) (4.33681e-08 7.37257e-07 -4.92692e+06) (1.27502e-06 8.67362e-07 -4.40208e+06) (3.9465e-07 -3.29597e-07 -3.9786e+06) (1.12757e-07 1.17094e-07 -3.71138e+06)
1000          (2.77556e-07 2.42861e-07 -7.6727e+06) (-9.71445e-07 -2.28983e-06 -7.55779e+06) (3.22659e-06 4.54498e-06 -7.33309e+06) (-2.09902e-06 -1.8735e-06 -7.00232e+06) (3.64292e-07 4.16334e-07 -6.57982e+06) (1.21431e-07 1.73472e-07 -6.08637e+06) (3.1225e-06 2.81025e-06 -5.55129e+06) (1.76074e-06 1.82146e-06 -5.01156e+06) (1.33574e-06 1.45717e-06 -4.51032e+06) (-1.51788e-07 -8.67362e-08 -4.09736e+06) (8.67362e-09 -2.1684e-08 -3.83126e+06)
1050          (-5.89806e-07 0 -7.54359e+06) (-1.04083e-07 0 -7.43917e+06) (8.67362e-07 -1.52656e-06 -7.2339e+06) (-4.33681e-07 -5.0307e-07 -6.93168e+06) (-1.73472e-07 -7.97973e-07 -6.54419e+06) (-3.64292e-07 -4.68375e-07 -6.08939e+06) (-4.85723e-07 -2.94903e-07 -5.59272e+06) (-3.1225e-07 -5.72459e-07 -5.08666e+06) (-3.38271e-07 -4.0766e-07 -4.61072e+06) (-1.73472e-07 -1.73472e-08 -4.21166e+06) (1.1189e-06 7.97973e-07 -3.95033e+06)
1100          (-1.42247e-06 1.21431e-06 -7.42561e+06) (3.46945e-08 -6.59195e-07 -7.3302e+06) (-2.08167e-07 -1.14492e-06 -7.14242e+06) (-9.19403e-07 -6.41848e-07 -6.86509e+06) (-1.00614e-06 -9.19403e-07 -6.50876e+06) (-6.59195e-07 -1.17961e-06 -6.0888e+06) (-7.63278e-07 -1.05818e-06 -5.6275e+06) (-7.11237e-07 -8.06646e-07 -5.15375e+06) (-6.67869e-07 -6.93889e-07 -4.70351e+06) (-3.46945e-07 -2.47198e-07 -4.32106e+06) (-4.0766e-07 2.21177e-07 -4.06739e+06)
1150          (-3.81639e-06 3.50414e-06 -7.31746e+06) (2.08167e-07 0 -7.22991e+06) (7.97973e-07 -6.245e-07 -7.05753e+06) (-1.9082e-07 4.33681e-07 -6.80238e+06) (-2.77556e-07 5.0307e-07 -6.47393e+06) (-1.56125e-07 4.85723e-07 -6.08553e+06) (9.71445e-07 -5.55112e-07 -5.65693e+06) (3.20924e-07 1.73472e-08 -5.21399e+06) (2.51535e-07 -9.54098e-08 -4.78957e+06) (3.81639e-07 -1.12757e-07 -4.42549e+06) (-3.82073e-06 3.58654e-06 -4.1811e+06)
1200          (-9.02056e-07 -8.67362e-07 -7.21834e+06) (8.32667e-07 9.02056e-07 -7.13735e+06) (1.56125e-06 7.28584e-07 -6.97855e+06) (5.89806e-07 5.55112e-07 -6.74336e+06) (-2.77556e-07 -1.38778e-07 -6.44004e+06) (4.33681e-07 3.46945e-07 -6.08039e+06) (1.64799e-06 1.63064e-06 -5.68204e+06) (-1.04083e-07 -5.0307e-07 -5.2684e+06) (1.04083e-06 9.28077e-07 -4.86932e+06) (1.60462e-07 1.0842e-07 -4.52486e+06) (1.30972e-06 1.20563e-06 -4.29056e+06)
1250          (-7.56339e-06 7.38992e-06 -7.12632e+06) (-6.245e-07 1.42247e-06 -7.05185e+06) (2.08167e-07 3.46945e-07 -6.9054e+06) (1.14492e-06 -3.81639e-07 -6.68806e+06) (1.71738e-06 -6.41848e-07 -6.40746e+06) (5.89806e-07 5.0307e-07 -6.07407e+06) (1.89085e-06 -7.97973e-07 -5.70377e+06) (1.12757e-06 1.04083e-07 -5.31775e+06) (9.19403e-07 -4.16334e-07 -4.94373e+06) (3.55618e-07 1.9082e-07 -4.61845e+06) (-4.93529e-06 4.70977e-06 -4.39614e+06)
1300          (1.07553e-06 7.28584e-07 -7.04183e+06) (1.04083e-07 -3.46945e-08 -6.97265e+06) (-4.16334e-07 -7.28584e-07 -6.8371e+06) (3.98986e-07 -9.88792e-07 -6.63607e+06) (2.60209e-07 3.98986e-07 -6.37614e+06) (2.94903e-07 2.77556e-07 -6.0669e+06) (-5.20417e-08 1.38778e-07 -5.72263e+06) (-1.21431e-07 4.51028e-07 -5.36281e+06) (-8.67362e-09 2.60209e-08 -5.01258e+06) (1.64799e-07 2.08167e-07 -4.70719e+06) (5.63785e-08 2.29851e-07 -4.49623e+06)
1350          (0 2.42861e-07 -6.96327e+06) (-2.08167e-07 -4.85723e-07 -6.89921e+06) (4.16334e-07 3.46945e-07 -6.77369e+06) (4.68375e-07 -1.56125e-07 -6.58743e+06) (1.21431e-07 1.38778e-07 -6.34641e+06) (-3.81639e-07 -4.51028e-07 -6.05935e+06) (5.20417e-08 2.60209e-07 -5.73926e+06) (4.0766e-07 3.64292e-07 -5.40403e+06) (1.56125e-07 1.47451e-07 -5.07681e+06) (-4.33681e-08 -3.03577e-08 -4.79051e+06) (-1.73472e-08 2.34188e-07 -4.59161e+06)
1400          (-8.67362e-07 5.89806e-07 -6.89023e+06) (3.81639e-07 -3.81639e-07 -6.83107e+06) (1.38778e-07 -3.46945e-08 -6.7147e+06) (1.38778e-07 2.60209e-07 -6.54186e+06) (-8.67362e-08 3.98986e-07 -6.31829e+06) (3.98986e-07 -1.73472e-07 -6.05167e+06) (2.25514e-07 1.56125e-07 -5.75408e+06) (1.30104e-07 1.99493e-07 -5.44187e+06) (1.04083e-07 0 -5.1367e+06) (4.0766e-07 -1.17094e-07 -4.86848e+06) (4.07226e-06 -4.41921e-06 -4.68225e+06)
1450          (1.42594e-05 -1.43635e-05 -6.82261e+06) (4.51028e-07 -5.89806e-07 -6.76772e+06) (2.28983e-06 -2.28983e-06 -6.65973e+06) (-1.21431e-06 1.2837e-06 -6.49928e+06) (8.84709e-07 -1.02349e-06 -6.29166e+06) (5.37764e-07 -4.85723e-07 -6.04397e+06) (-7.97973e-07 8.50015e-07 -5.76731e+06) (1.23165e-06 -1.14492e-06 -5.47676e+06) (-2.60209e-08 3.46945e-08 -5.19235e+06) (-2.1684e-07 3.85976e-07 -4.94189e+06) (-2.38308e-05 2.35359e-05 -4.76737e+06)
1500          (1.42247e-05 -1.43635e-05 -6.75985e+06) (4.996e-06 -4.78784e-06 -6.70883e+06) (1.70003e-06 -1.8735e-06 -6.60849e+06) (1.11022e-06 -1.09288e-06 -6.45944e+06) (-3.62557e-06 3.53884e-06 -6.26658e+06) (3.46945e-08 -8.67362e-08 -6.03642e+06) (1.00614e-06 -9.36751e-07 -5.77924e+06) (-3.1225e-07 3.20924e-07 -5.50898e+06) (-3.03577e-07 2.34188e-07 -5.24417e+06) (1.61763e-06 -1.47018e-06 -5.01067e+06) (-8.74734e-06 8.47846e-06 -4.84746e+06)
1550          (-1.14492e-06 -1.00614e-06 -6.70163e+06) (-1.38778e-07 6.93889e-08 -6.6539e+06) (3.46945e-08 0 -6.56075e+06) (1.50921e-06 2.58474e-06 -6.42225e+06) (4.51028e-07 5.0307e-07 -6.24301e+06) (2.25514e-07 1.73472e-07 -6.02911e+06) (-8.67362e-08 -2.94903e-07 -5.79006e+06) (2.42861e-07 -8.67362e-09 -5.53875e+06) (2.77556e-07 1.9082e-07 -5.29243e+06) (6.67869e-07 7.02563e-07 -5.07517e+06) (1.69136e-07 4.90059e-07 -4.92232e+06)
1600          (1.54043e-05 -1.46064e-05 -6.64713e+06) (1.04083e-07 1.38778e-07 -6.60281e+06) (3.46945e-08 1.73472e-07 -6.51627e+06) (2.25514e-07 2.94903e-07 -6.38753e+06) (8.67362e-08 6.93889e-08 -6.22093e+06) (1.9082e-07 2.08167e-07 -6.02211e+06) (1.04083e-07 8.67362e-08 -5.79992e+06) (1.56125e-07 2.1684e-07 -5.56633e+06) (1.56125e-07 1.38778e-07 -5.33731e+06) (4.33681e-07 4.51028e-07 -5.13447e+06) (1.91123e-05 -2.10682e-05 -4.99321e+06)
1650          (2.08167e-07 3.46945e-08 -6.59672e+06) (-7.97973e-07 -2.42861e-07 -6.55551e+06) (-1.11022e-06 -4.51028e-07 -6.47483e+06) (-1.02349e-06 -1.04083e-06 -6.3552e+06) (-9.88792e-07 -1.2837e-06 -6.20029e+06) (-1.56125e-06 -9.88792e-07 -6.0155e+06) (-1.38778e-06 -1.00614e-06 -5.80901e+06) (-1.2837e-06 -9.45424e-07 -5.592e+06) (-7.89299e-07 -9.02056e-07 -5.37914e+06) (-6.85216e-07 -4.16334e-07 -5.19129e+06) (-4.0766e-07 -7.63278e-07 -5.05885e+06)
1700          (1.81452e-05 -1.82146e-05 -6.54961e+06) (-2.87964e-06 -2.42861e-06 -6.51136e+06) (-2.81025e-06 -3.1572e-06 -6.4364e+06) (-3.05311e-06 -4.75314e-06 -6.325e+06) (-4.57967e-06 -3.90313e-06 -6.181e+06) (-4.71845e-06 -4.31946e-06 -6.00926e+06) (-4.80518e-06 -4.35416e-06 -5.81743e+06) (-3.26128e-06 -4.10262e-06 -5.61583e+06) (-2.9924e-06 -2.89699e-06 -5.41817e+06) (-2.70617e-06 -2.55004e-06 -5.24348e+06) (1.86266e-05 -1.88304e-05 -5.12056e+06)
1750          (-5.37764e-06 5.23886e-06 -6.50574e+06) (2.87964e-06 -2.56739e-06 -6.47024e+06) (1.14492e-06 -7.28584e-07 -6.40047e+06) (-2.39392e-06 2.87964e-06 -6.2969e+06) (-9.88792e-07 1.66533e-06 -6.16302e+06) (-1.14492e-06 1.80411e-06 -6.00341e+06) (9.88792e-07 -3.1225e-07 -5.82518e+06) (-2.94903e-07 1.03216e-06 -5.63796e+06) (6.41848e-07 -1.38778e-07 -5.45441e+06) (9.62772e-07 -5.11743e-07 -5.29219e+06) (-1.36089e-05 1.34094e-05 -5.17803e+06)
1800          (-6.245e-07 -6.93889e-07 -6.46516e+06) (-7.49401e-06 7.14706e-06 -6.43195e+06) (-7.14706e-06 4.54498e-06 -6.36695e+06) (4.85723e-07 -2.498e-06 -6.27066e+06) (-9.1073e-06 5.42968e-06 -6.14621e+06) (-2.72352e-06 1.52656e-06 -5.99788e+06) (-7.30319e-06 4.31946e-06 -5.83232e+06) (2.02095e-06 -5.15213e-06 -5.6585e+06) (-6.84348e-06 4.09395e-06 -5.48816e+06) (-3.20056e-06 1.22298e-06 -5.33775e+06) (1.3314e-06 1.42681e-06 -5.23152e+06)
1850          (2.55698e-05 -2.64025e-05 -6.42696e+06) (1.73472e-07 3.46945e-07 -6.39629e+06) (2.08167e-07 2.77556e-07 -6.33583e+06) (1.73472e-07 3.29597e-07 -6.24639e+06) (3.81639e-07 1.9082e-07 -6.13059e+06) (3.29597e-07 2.60209e-07 -5.99275e+06) (3.64292e-07 2.08167e-07 -5.83897e+06) (2.51535e-07 2.51535e-07 -5.67759e+06) (2.42861e-07 2.42861e-07 -5.51961e+06) (3.64292e-07 3.55618e-07 -5.37952e+06) (-1.94549e-05 2.10639e-05 -5.28166e+06)
1900          (-6.59195e-07 -6.59195e-07 -6.39199e+06) (-2.22045e-06 -1.97758e-06 -6.36321e+06) (-3.19189e-06 -3.1572e-06 -6.30672e+06) (-4.3715e-06 -3.81639e-06 -6.22366e+06) (-5.16948e-06 -5.44703e-06 -6.11605e+06) (-5.3603e-06 -5.49907e-06 -5.98797e+06) (-5.11743e-06 -5.39499e-06 -5.84516e+06) (-4.66641e-06 -4.76182e-06 -5.69537e+06) (-3.88578e-06 -3.97252e-06 -5.54885e+06) (-2.25514e-06 -2.41127e-06 -5.41921e+06) (8.1532e-07 8.54351e-07 -5.32802e+06)
1950          (3.19189e-06 3.67761e-06 -6.35871e+06) (-1.73472e-07 4.16334e-07 -6.33222e+06) (-1.38778e-07 -6.93889e-08 -6.28011e+06) (1.04083e-07 -4.85723e-07 -6.20264e+06) (-4.16334e-07 -2.08167e-07 -6.10249e+06) (-3.1225e-07 -1.21431e-07 -5.98353e+06) (2.08167e-07 -2.94903e-07 -5.85095e+06) (-4.0766e-07 -1.30104e-07 -5.7119e+06) (-1.04083e-07 -6.07153e-08 -5.57604e+06) (1.73472e-07 1.82146e-07 -5.45555e+06) (-3.28296e-06 -4.74447e-06 -5.3714e+06)
2000          (1.249e-06 1.17961e-06 -6.3287e+06) (-2.04697e-06 1.97758e-06 -6.30359e+06) (9.02056e-07 -8.67362e-07 -6.25472e+06) (-9.29812e-06 9.12465e-06 -6.18286e+06) (-8.50015e-07 6.93889e-07 -6.08998e+06) (1.42247e-06 -1.50921e-06 -5.97944e+06) (-5.20417e-07 5.37764e-07 -5.85632e+06) (-4.94396e-07 5.29091e-07 -5.72733e+06) (7.89299e-07 -8.67362e-07 -5.60126e+06) (7.97973e-07 -7.45931e-07 -5.48996e+06) (-1.96024e-06 -2.04264e-06 -5.41154e+06)
2050          (1.04083e-07 1.04083e-07 -6.29967e+06) (-3.46945e-08 -4.85723e-07 -6.27691e+06) (6.245e-07 -1.21431e-06 -6.23181e+06) (-3.81639e-07 -5.0307e-07 -6.16478e+06) (-4.33681e-07 -6.93889e-07 -6.07828e+06) (-1.38778e-06 3.29597e-07 -5.97561e+06) (7.63278e-07 -1.68268e-06 -5.86136e+06) (-1.05818e-06 6.93889e-08 -5.74169e+06) (-3.03577e-07 -5.37764e-07 -5.62486e+06) (-1.30104e-07 -2.86229e-07 -5.52166e+06) (-1.34441e-07 -1.69136e-07 -5.44881e+06)
2100          (-1.45717e-05 1.58901e-05 -6.27396e+06) (-1.38778e-07 3.46945e-08 -6.25201e+06) (1.04083e-07 2.08167e-07 -6.20945e+06) (0 1.38778e-07 -6.1476e+06) (8.67362e-08 2.08167e-07 -6.06749e+06) (1.38778e-07 1.21431e-07 -5.97215e+06) (1.73472e-07 1.04083e-07 -5.86604e+06) (8.67362e-08 1.56125e-07 -5.75504e+06) (1.38778e-07 5.20417e-08 -5.64671e+06) (1.73472e-07 2.77556e-07 -5.5507e+06) (-2.03613e-05 1.85919e-05 -5.48372e+06)
2150          (-4.82253e-06 4.71845e-06 -6.24828e+06) (2.77556e-07 6.93889e-08 -6.2288e+06) (-4.51028e-07 3.46945e-07 -6.1902e+06) (-1.21431e-07 -1.04083e-07 -6.13219e+06) (2.08167e-07 1.73472e-07 -6.05745e+06) (1.9082e-07 2.94903e-07 -5.96889e+06) (6.93889e-08 5.20417e-08 -5.87048e+06) (2.42861e-07 -1.04083e-07 -5.7675e+06) (-2.60209e-08 1.30104e-07 -5.66701e+06) (6.07153e-08 2.42861e-07 -5.57827e+06) (3.76435e-06 -3.9942e-06 -5.51593e+06)
2200          (-3.81639e-07 1.58207e-05 -6.22667e+06) (1.38778e-07 3.46945e-08 -6.2074e+06) (0 1.73472e-07 -6.17067e+06) (0 2.94903e-07 -6.11707e+06) (2.25514e-07 2.08167e-07 -6.04804e+06) (2.25514e-07 5.20417e-08 -5.96592e+06) (2.60209e-07 1.73472e-07 -5.87456e+06) (2.08167e-07 1.9082e-07 -5.77899e+06) (7.80626e-08 7.80626e-08 -5.68591e+06) (2.42861e-07 2.86229e-07 -5.60344e+06) (-2.96378e-05 1.0005e-05 -5.54589e+06)
2250          (2.26555e-05 -2.28983e-05 -6.20404e+06) (-1.04083e-07 -6.93889e-07 -6.18724e+06) (1.04083e-07 -1.31839e-06 -6.15399e+06) (-3.1225e-07 -7.63278e-07 -6.10395e+06) (-8.67362e-08 -1.42247e-06 -6.03954e+06) (-1.00614e-06 -2.42861e-07 -5.96316e+06) (-1.00614e-06 -4.33681e-07 -5.87839e+06) (-6.245e-07 -5.0307e-07 -5.78987e+06) (-2.1684e-07 -7.1991e-07 -5.70348e+06) (-4.94396e-07 -6.93889e-08 -5.62731e+06) (-4.33681e-06 4.12864e-06 -5.57366e+06)
2300          (-1.45717e-06 -1.49186e-06 -6.18573e+06) (-1.49186e-06 3.95517e-06 -6.16903e+06) (7.91034e-06 -2.77556e-06 -6.13709e+06) (4.16334e-06 2.98372e-06 -6.09078e+06) (8.82974e-06 1.73472e-07 -6.03131e+06) (2.13371e-06 7.12971e-06 -5.96058e+06) (3.22659e-06 6.34909e-06 -5.88193e+06) (3.36536e-06 4.42354e-06 -5.79973e+06) (4.7011e-06 1.00614e-06 -5.71965e+06) (9.28077e-07 3.59955e-06 -5.64919e+06) (1.53957e-06 1.45717e-06 -5.59933e+06)
2350          (6.93889e-08 6.93889e-08 -6.16574e+06) (2.498e-06 2.94903e-06 -6.15145e+06) (5.55112e-07 6.93889e-07 -6.12291e+06) (-6.93889e-07 -2.42861e-06 -6.07976e+06) (-1.49186e-06 -2.18575e-06 -6.02406e+06) (-1.94289e-06 -2.34188e-06 -5.95821e+06) (-2.18575e-06 -2.86229e-06 -5.88525e+06) (-1.97758e-06 -2.15106e-06 -5.80905e+06) (-1.35308e-06 -1.46584e-06 -5.73492e+06) (-7.63278e-07 -1.02349e-06 -5.66946e+06) (2.60209e-08 3.03577e-08 -5.62335e+06)
2400          (0 -4.85723e-07 -6.15036e+06) (-2.42861e-07 -4.16334e-07 -6.13566e+06) (-6.245e-07 -5.20417e-07 -6.10801e+06) (-1.2837e-06 -5.89806e-07 -6.06811e+06) (-9.02056e-07 -1.19696e-06 -6.01691e+06) (-1.31839e-06 -1.12757e-06 -5.95603e+06) (-7.11237e-07 -1.43982e-06 -5.88836e+06) (-9.19403e-07 -1.02349e-06 -5.81765e+06) (-7.28584e-07 -9.80119e-07 -5.74899e+06) (-3.20924e-07 -6.50521e-07 -5.68821e+06) (1.64799e-07 -3.03577e-08 -5.64558e+06)
2450          (2.59168e-05 -2.60555e-05 -6.13262e+06) (-1.70003e-06 -2.04697e-06 -6.12053e+06) (5.72459e-06 -1.03736e-05 -6.09613e+06) (7.70217e-06 -1.24206e-05 -6.05886e+06) (5.88071e-06 -1.13451e-05 -6.01087e+06) (-5.06539e-06 3.29597e-07 -5.95409e+06) (7.45931e-07 -5.91541e-06 -5.89128e+06) (-5.30825e-06 1.02349e-06 -5.82581e+06) (-1.19696e-06 -2.45463e-06 -5.76198e+06) (-7.28584e-07 -1.39645e-06 -5.70589e+06) (-1.09591e-05 1.07856e-05 -5.66625e+06)
2500          (2.21698e-05 -1.56819e-05 -6.11986e+06) (-6.93889e-08 -1.38778e-07 -6.10707e+06) (-1.73472e-07 -6.93889e-08 -6.08308e+06) (0 -1.38778e-07 -6.04849e+06) (-1.73472e-07 -2.08167e-07 -6.00453e+06) (-1.21431e-07 -1.38778e-07 -5.95216e+06) (-1.21431e-07 -1.9082e-07 -5.89397e+06) (-1.21431e-07 -8.67362e-08 -5.83314e+06) (-2.08167e-07 -1.73472e-07 -5.77408e+06) (6.07153e-08 1.73472e-08 -5.72213e+06) (9.96599e-06 -1.2477e-05 -5.68538e+06)
2550          (-1.85268e-05 2.04697e-05 -6.10398e+06) (-5.20417e-07 7.28584e-07 -6.09384e+06) (1.00614e-06 -2.42861e-07 -6.0728e+06) (-6.245e-07 -3.1225e-07 -6.04084e+06) (-7.11237e-07 2.08167e-07 -5.99939e+06) (2.60209e-07 2.42861e-07 -5.9505e+06) (2.08167e-07 3.46945e-07 -5.89641e+06) (-5.20417e-08 -1.73472e-07 -5.84015e+06) (-1.04083e-07 1.12757e-07 -5.78525e+06) (1.04083e-07 2.25514e-07 -5.737e+06) (-1.16096e-05 1.25767e-05 -5.70309e+06)
2600          (-1.97758e-06 3.29597e-06 -6.09365e+06) (-1.73472e-07 1.04083e-07 -6.08225e+06) (3.46945e-07 3.1225e-07 -6.06146e+06) (1.38778e-07 5.55112e-07 -6.03171e+06) (3.46945e-07 4.85723e-07 -5.99387e+06) (2.94903e-07 6.93889e-07 -5.94887e+06) (5.0307e-07 5.0307e-07 -5.89882e+06) (4.16334e-07 5.0307e-07 -5.84652e+06) (2.1684e-07 3.1225e-07 -5.79587e+06) (3.98986e-07 3.03577e-07 -5.75099e+06) (2.24213e-06 -3.16587e-07 -5.71958e+06)
2650          (1.21431e-06 -1.38778e-06 -6.07957e+06) (8.67362e-07 -4.16334e-07 -6.07072e+06) (2.42861e-07 6.93889e-08 -6.05294e+06) (-2.77556e-07 3.1225e-07 -6.02523e+06) (1.5439e-06 -1.09288e-06 -5.98959e+06) (5.55112e-07 -3.46945e-08 -5.94747e+06) (-1.73472e-08 3.81639e-07 -5.90096e+06) (-1.73472e-07 3.46945e-07 -5.85259e+06) (8.67362e-09 2.1684e-07 -5.80541e+06) (2.60209e-08 1.73472e-07 -5.76408e+06) (1.30538e-06 -1.46584e-06 -5.73485e+06)
2700          (-6.93889e-08 -2.42861e-07 -6.07061e+06) (-1.8735e-06 -1.21431e-06 -6.06101e+06) (1.17961e-06 -1.04083e-07 -6.04312e+06) (1.73472e-06 2.46331e-06 -6.01735e+06) (3.83374e-06 3.1225e-06 -5.98471e+06) (4.00721e-06 4.16334e-06 -5.94597e+06) (4.05925e-06 3.69496e-06 -5.90294e+06) (3.92048e-06 3.08781e-06 -5.85809e+06) (2.54137e-06 2.83627e-06 -5.81438e+06) (1.96891e-06 1.35308e-06 -5.77616e+06) (1.51788e-07 -2.25514e-07 -5.74891e+06)
2750          (-2.08167e-07 -2.08167e-07 -6.05845e+06) (-5.89806e-07 -1.17961e-06 -6.05096e+06) (-1.70003e-06 -1.00614e-06 -6.03565e+06) (-1.76942e-06 -5.55112e-07 -6.0119e+06) (-1.5439e-06 -1.07553e-06 -5.98115e+06) (-1.45717e-06 -1.63064e-06 -5.94484e+06) (-1.89085e-06 -1.02349e-06 -5.90485e+06) (-1.21431e-06 -1.43982e-06 -5.86328e+06) (-9.62772e-07 -1.27502e-06 -5.82266e+06) (-6.59195e-07 -8.1532e-07 -5.78741e+06) (5.50775e-07 5.1608e-07 -5.762e+06)
2800          (9.92262e-06 9.81853e-06 -6.05119e+06) (1.73472e-07 -1.38778e-07 -6.04262e+06) (-2.77556e-07 1.04083e-07 -6.02702e+06) (2.77556e-07 -6.59195e-07 -6.00478e+06) (1.9082e-07 -5.72459e-07 -5.97698e+06) (-2.94903e-07 -2.77556e-07 -5.94367e+06) (-1.38778e-07 -4.33681e-07 -5.90668e+06) (-1.38778e-07 -3.64292e-07 -5.8681e+06) (5.20417e-08 -3.03577e-07 -5.83048e+06) (1.30104e-07 1.73472e-07 -5.79715e+06) (1.05948e-05 1.05688e-05 -5.77423e+06)
2850          (6.93889e-08 0 -6.04024e+06) (-6.245e-07 6.93889e-08 -6.03399e+06) (3.1225e-07 -1.04083e-07 -6.02089e+06) (7.28584e-07 -1.00614e-06 -6.00047e+06) (3.81639e-07 -4.68375e-07 -5.97393e+06) (-1.73472e-08 1.38778e-07 -5.94267e+06) (-8.1532e-07 8.67362e-07 -5.90823e+06) (-3.29597e-07 0 -5.87261e+06) (-5.37764e-07 6.76542e-07 -5.83777e+06) (-1.38778e-07 -6.07153e-08 -5.80728e+06) (3.46945e-08 6.07153e-08 -5.78556e+06)
2900          (5.10009e-06 4.996e-06 -6.03432e+06) (3.1225e-07 -4.16334e-07 -6.02694e+06) (1.73472e-07 -6.93889e-08 -6.01347e+06) (5.55112e-07 7.63278e-07 -5.99412e+06) (5.37764e-07 7.28584e-07 -5.97013e+06) (8.67362e-07 9.54098e-07 -5.94151e+06) (1.00614e-06 4.16334e-07 -5.90974e+06) (2.94903e-07 1.07553e-06 -5.87665e+06) (7.97973e-07 1.30104e-07 -5.84447e+06) (7.97973e-07 4.33681e-07 -5.81583e+06) (8.86877e-06 8.86877e-06 -5.79601e+06)
2950          (-2.87964e-06 -1.31839e-06 -6.02447e+06) (1.04083e-06 -1.11022e-06 -6.0192e+06) (-7.28584e-07 1.04083e-07 -6.00838e+06) (-4.16334e-07 2.42861e-07 -5.99056e+06) (5.20417e-08 1.2837e-06 -5.96758e+06) (-4.16334e-07 -3.64292e-07 -5.94068e+06) (3.81639e-07 -7.80626e-07 -5.91109e+06) (1.04083e-07 4.68375e-07 -5.88033e+06) (1.56125e-07 2.86229e-07 -5.85057e+06) (-1.12757e-07 -6.07153e-08 -5.82436e+06) (3.51282e-07 -2.9924e-07 -5.80575e+06)
3000          (0 3.46945e-08 -6.0198e+06) (0 0 -6.01317e+06) (0 0 -6.00149e+06) (3.46945e-08 3.46945e-08 -5.98498e+06) (-3.46945e-08 1.21431e-07 -5.96434e+06) (-8.67362e-08 5.20417e-08 -5.93976e+06) (0 5.20417e-08 -5.91241e+06) (0 8.67362e-08 -5.88394e+06) (1.73472e-08 0 -5.85622e+06) (-2.60209e-08 -1.73472e-08 -5.83209e+06) (3.90313e-08 4.33681e-09 -5.8147e+06)
3050          (4.16334e-07 4.16334e-07 -6.01105e+06) (5.55112e-07 5.20417e-07 -6.00644e+06) (3.1225e-07 7.63278e-07 -5.99714e+06) (4.51028e-07 4.51028e-07 -5.98199e+06) (3.81639e-07 4.68375e-07 -5.96236e+06) (3.98986e-07 5.0307e-07 -5.93913e+06) (3.98986e-07 3.46945e-07 -5.91367e+06) (4.33681e-07 4.16334e-07 -5.88716e+06) (1.56125e-07 1.04083e-07 -5.86176e+06) (1.73472e-07 1.99493e-07 -5.83915e+06) (2.12504e-07 1.99493e-07 -5.82305e+06)
3100          (6.83481e-06 6.66134e-06 -6.00753e+06) (1.38778e-07 1.249e-06 -6.00161e+06) (-1.14492e-06 2.42861e-07 -5.99111e+06) (-1.38778e-06 -1.35308e-06 -5.97698e+06) (-1.80411e-06 -2.41127e-06 -5.95944e+06) (-2.08167e-06 -2.11636e-06 -5.9383e+06) (-1.56125e-06 -2.41127e-06 -5.9149e+06) (-1.99493e-06 -2.13371e-06 -5.89017e+06) (-1.89952e-06 -1.77809e-06 -5.86678e+06) (-6.67869e-07 -9.36751e-07 -5.84534e+06) (1.97845e-05 1.97238e-05 -5.83076e+06)
3150          (-7.25114e-06 7.25114e-06 -5.99936e+06) (1.49186e-06 1.49186e-06 -5.99545e+06) (1.70003e-06 9.02056e-07 -5.98812e+06) (9.02056e-07 1.45717e-06 -5.97487e+06) (1.89085e-06 0 -5.95779e+06) (1.70003e-06 5.0307e-07 -5.93772e+06) (7.80626e-07 1.23165e-06 -5.91582e+06) (1.75207e-06 3.64292e-07 -5.89295e+06) (-5.20417e-08 1.5786e-06 -5.87094e+06) (6.41848e-07 4.16334e-07 -5.85182e+06) (6.44016e-06 -6.36644e-06 -5.83796e+06)
3200          (-3.46945e-08 0 -5.99649e+06) (-8.32667e-07 6.93889e-08 -5.99143e+06) (3.46945e-08 0 -5.98284e+06) (2.77556e-07 7.28584e-07 -5.97025e+06) (-5.20417e-08 1.2837e-06 -5.95513e+06) (-1.73472e-08 1.42247e-06 -5.93694e+06) (9.36751e-07 4.33681e-07 -5.91686e+06) (7.28584e-07 4.51028e-07 -5.89587e+06) (2.25514e-07 7.71952e-07 -5.87527e+06) (2.94903e-07 5.11743e-07 -5.85732e+06) (-2.60209e-08 -2.60209e-08 -5.84461e+06)
3250          (0 -3.46945e-08 -5.98945e+06) (-5.20417e-07 -7.28584e-07 -5.98623e+06) (-7.63278e-07 -3.81639e-07 -5.97968e+06) (-7.97973e-07 -2.42861e-07 -5.96848e+06) (-6.41848e-07 -5.20417e-07 -5.95387e+06) (-5.89806e-07 -5.37764e-07 -5.93661e+06) (-3.81639e-07 -6.41848e-07 -5.91778e+06) (-5.0307e-07 -4.16334e-07 -5.89824e+06) (-4.51028e-07 -3.1225e-07 -5.87918e+06) (-1.99493e-07 -1.30104e-07 -5.86263e+06) (0 -1.73472e-07 -5.8508e+06)
3300          (1.04083e-07 0 -5.98736e+06) (0 0 -5.98262e+06) (-6.93889e-08 3.46945e-08 -5.97517e+06) (1.04083e-07 6.93889e-08 -5.9644e+06) (-8.67362e-08 -1.73472e-08 -5.95142e+06) (-1.38778e-07 -2.25514e-07 -5.93595e+06) (-3.46945e-08 -1.38778e-07 -5.91855e+06) (-5.20417e-08 -1.04083e-07 -5.90039e+06) (-1.12757e-07 -8.67362e-08 -5.88287e+06) (-6.93889e-08 -5.20417e-08 -5.86746e+06) (0 -1.30104e-08 -5.85651e+06)