# Probe 0 (0.0015 0.0015 0)
# Probe 1 (0.0015 0.0015 0.002)
# Probe 2 (0.0015 0.0015 0.004)
# Probe 3 (0.0015 0.0015 0.006)
# Probe 4 (0.0015 0.0015 0.008)
# Probe 5 (0.0015 0.0015 0.01)
# Probe 6 (0.0015 0.0015 0.012)
# Probe 7 (0.0015 0.0015 0.014)
# Probe 8 (0.0015 0.0015 0.016)
# Probe 9 (0.0015 0.0015 0.018)
# Probe 10 (0.0015 0.0015 0.02)
# Time        0             1             2             3             4             5             6             7             8             9             10           
50            (-1.70519e-13 4.004e-13 3.8743e-13) (-1.69109e-11 -4.28798e-12 -3.29561e-11) (-2.04832e-12 -6.51372e-11 -2.53095e-10) (4.82513e-11 -4.38347e-11 5.70295e-11) (1.85282e-11 5.73634e-12 9.60952e-11) (1.90049e-11 1.08119e-11 2.48707e-11) (-2.37911e-11 3.15318e-11 5.22736e-11) (1.44588e-11 1.60428e-11 2.207e-10) (1.39187e-13 -1.88015e-13 4.45172e-10) (-9.21754e-12 3.87485e-11 4.5889e-10) (1.30387e-12 -3.65398e-12 7.69582e-10)
100           (-2.65868e-12 -4.60352e-12 -1.62443e-11) (6.79615e-13 2.29645e-11 -6.35783e-11) (-8.47102e-11 -6.93526e-12 -1.49269e-10) (5.61372e-12 2.16958e-11 -2.47215e-10) (1.18614e-11 1.36877e-11 -5.59784e-10) (-1.51791e-11 -1.5755e-11 -4.81493e-10) (6.21589e-11 -1.21741e-12 -3.48381e-10) (1.92454e-11 2.68093e-11 -4.52663e-10) (3.89898e-12 -1.38169e-11 -1.29726e-10) (5.47901e-11 6.78454e-12 1.31671e-10) (-1.07702e-11 -3.37188e-12 2.02375e-10)
150           (1.37912e-11 6.07397e-12 -3.68405e-11) (-7.99078e-12 -6.1796e-12 -6.46386e-11) (2.02686e-11 -3.73688e-11 -5.19643e-10) (-3.43525e-11 9.47149e-11 -6.39526e-10) (2.57533e-11 -2.8766e-12 -7.46027e-10) (-1.50855e-11 -8.47908e-13 -7.15663e-10) (1.03641e-11 2.5373e-11 -1.16208e-09) (1.80688e-11 3.00986e-11 -9.05178e-10) (4.12201e-11 1.46758e-11 -7.95044e-10) (4.01483e-12 -3.65531e-11 -7.56571e-10) (7.14844e-12 -1.1377e-11 -4.45116e-10)
200           (5.60544e-12 -1.72536e-11 -6.66564e-11) (-3.30054e-12 -6.10192e-12 -2.25971e-10) (-8.11525e-12 -1.30668e-12 -1.06472e-10) (-3.02692e-11 -5.42206e-12 -3.39322e-10) (-1.51559e-11 3.58825e-12 -1.03147e-10) (2.54607e-11 2.98997e-11 -1.62052e-10) (-2.76263e-11 -2.50179e-11 -5.18803e-10) (-1.39432e-12 -3.534e-11 -6.59121e-10) (-1.08069e-11 -1.77029e-11 -6.05437e-10) (3.11957e-11 -3.45926e-12 -6.67763e-10) (2.17036e-11 2.43165e-11 -8.09655e-10)
250           (-2.17537e-11 -2.44484e-11 -1.51815e-12) (2.10231e-11 9.58504e-11 -2.85919e-10) (2.35667e-11 4.2858e-11 -4.30663e-10) (-3.44723e-11 4.23319e-11 -5.18109e-10) (-1.09835e-11 1.01295e-10 -4.30404e-10) (3.67742e-11 5.38932e-11 -1.71242e-10) (1.7634e-11 4.40935e-11 -4.17219e-10) (-1.6606e-11 -2.61295e-12 -3.44197e-10) (-9.02012e-12 -5.31544e-11 -8.36388e-11) (5.46687e-12 7.41737e-12 -1.15034e-10) (1.41793e-11 2.3382e-12 -4.62633e-11)
300           (1.34114e-11 -2.74513e-11 2.17036e-11) (-1.24207e-11 -1.22343e-11 3.65468e-11) (-1.72196e-11 -1.4536e-11 -2.72107e-10) (-4.99285e-11 -4.59695e-11 -1.86949e-10) (3.11286e-11 2.80954e-12 -2.68057e-10) (-2.56416e-11 1.19498e-11 1.05649e-10) (-7.19045e-12 -2.00801e-11 2.17127e-10) (-1.97734e-11 3.19344e-12 6.86089e-10) (9.22067e-13 5.88602e-11 2.7063e-10) (-2.7582e-11 2.87833e-12 3.70581e-10) (1.41872e-11 1.77255e-11 4.17686e-10)
350           (7.02876e-12 -1.77226e-11 -1.14615e-13) (1.25151e-11 -2.93933e-11 -3.91294e-10) (3.61024e-12 3.0907e-11 -4.32469e-10) (-8.85216e-11 3.28583e-11 -7.11988e-10) (4.09541e-13 -5.9609e-11 -9.4308e-10) (1.17419e-12 4.69364e-12 -9.34173e-10) (1.03225e-11 -3.69922e-11 -1.11548e-09) (-3.7929e-11 -6.58076e-11 -1.4532e-09) (2.28436e-11 -1.93705e-12 -1.60183e-09) (3.14607e-11 -2.78343e-11 -1.56818e-09) (7.58442e-13 5.12758e-12 -1.57452e-09)
400           (-3.32679e-12 -8.08059e-12 3.40315e-11) (4.3958e-13 1.51204e-11 -2.24944e-10) (8.78767e-11 4.44228e-11 -5.34501e-10) (-6.30869e-12 2.68494e-11 -3.48924e-10) (-4.01262e-11 2.46051e-11 -3.89385e-10) (-9.05494e-12 -1.26692e-11 -4.20004e-10) (-1.33986e-11 -5.1244e-11 -4.88093e-10) (-2.29264e-11 -2.24449e-12 -4.34871e-10) (1.02987e-11 -4.65245e-11 -3.05593e-10) (9.36661e-11 -3.25628e-11 -5.86054e-10) (-2.85881e-11 3.34044e-11 -1.31592e-09)
450           (1.89292e-11 -3.28382e-12 -2.26921e-11) (-2.7049e-11 3.58723e-11 2.07012e-11) (-3.86779e-12 -2.33297e-12 -4.11325e-10) (4.85221e-11 -3.13182e-12 -3.19181e-10) (1.54344e-11 -2.11189e-11 -2.27915e-10) (3.50331e-11 -2.58278e-11 -2.60629e-10) (3.88833e-11 -2.71371e-11 1.7333e-10) (-2.5738e-12 -1.63614e-12 1.75733e-10) (-2.3865e-11 -1.82155e-11 1.68573e-10) (9.62127e-12 -1.89813e-11 3.24088e-10) (1.64298e-11 -2.49975e-12 4.63517e-10)
500           (1.7991e-12 -9.10031e-12 -1.46964e-11) (1.11823e-11 -1.27706e-11 -1.15448e-11) (5.14192e-11 -2.40655e-11 -1.73611e-11) (2.84804e-11 2.48909e-11 2.63947e-10) (6.86441e-12 4.99158e-11 3.06157e-10) (-5.45676e-11 1.97959e-11 3.21133e-10) (-4.27777e-11 -1.09529e-11 4.25065e-10) (4.26111e-11 8.73575e-12 2.51774e-10) (3.83155e-11 1.33432e-11 2.38754e-11) (3.35245e-11 -3.48433e-12 1.81236e-10) (-4.06377e-12 4.1197e-11 9.72267e-11)
550           (6.42844e-12 -4.86262e-12 -1.33147e-11) (7.64308e-12 1.22819e-11 -2.17797e-11) (-2.34749e-11 2.85913e-11 5.65617e-11) (4.00447e-11 5.55555e-11 3.32942e-10) (-1.21796e-11 5.29368e-12 1.87147e-10) (-2.81699e-11 2.08861e-12 1.22763e-11) (1.16529e-12 -8.75156e-12 -4.73859e-10) (1.52464e-11 -3.41288e-11 -4.01628e-10) (4.51299e-11 1.00515e-11 -5.34238e-10) (3.59601e-12 -1.60058e-11 -1.63037e-10) (-2.2923e-12 -2.04111e-12 -9.07279e-10)
600           (1.16072e-11 2.38648e-11 3.74615e-11) (5.94148e-11 7.19514e-11 -4.72872e-10) (6.39678e-11 3.20261e-11 -9.81302e-10) (-2.51275e-11 -2.32326e-11 -5.04203e-10) (4.51312e-11 -2.37401e-11 -9.42458e-10) (-8.74292e-11 7.88505e-11 -1.12448e-09) (-7.13328e-13 7.50528e-11 -1.20184e-09) (3.98501e-11 3.41139e-11 -1.23878e-09) (-9.54432e-12 1.72121e-11 -8.68554e-10) (1.78934e-11 2.44429e-10 -1.53995e-09) (1.5555e-11 2.22794e-11 -6.89178e-10)
650           (1.15002e-11 1.95045e-11 1.93225e-12) (-3.52036e-11 4.56513e-11 -1.73054e-10) (9.20837e-14 1.01313e-12 -6.12162e-12) (-2.46573e-12 3.95641e-11 -4.80538e-11) (1.53124e-11 -2.69754e-11 -3.38777e-10) (5.84238e-11 4.47262e-12 -1.36142e-10) (2.12668e-11 4.68805e-11 -2.08358e-11) (-7.26247e-12 5.99994e-11 3.04523e-12) (-7.86233e-12 1.55596e-11 -3.91907e-10) (4.71251e-11 2.73084e-11 -5.16162e-10) (1.1945e-12 3.28364e-12 -6.37156e-10)
700           (-4.59497e-13 1.84922e-12 1.32568e-11) (-2.87604e-11 4.18309e-11 1.45651e-10) (-9.28e-12 1.38525e-11 9.02538e-11) (-1.01401e-12 -5.57568e-11 7.06209e-11) (-1.1974e-11 2.66873e-11 -3.13955e-11) (1.77592e-11 -1.91988e-12 -2.02881e-10) (-2.11352e-11 3.62418e-11 -4.0614e-10) (-5.44572e-11 -3.9365e-12 -9.22953e-10) (-2.22794e-11 -4.20857e-12 -1.17164e-09) (-4.12183e-12 1.84841e-11 -1.46507e-09) (1.19327e-12 2.67548e-12 -1.75934e-09)
750           (-5.22489e-11 -1.51385e-11 -4.7609e-12) (-5.47041e-12 -1.43227e-12 -4.47617e-11) (-7.61945e-11 3.10693e-12 -1.64573e-10) (-1.03624e-11 -1.84006e-11 -9.82675e-11) (-2.04779e-11 -1.02341e-11 -1.95062e-10) (1.51283e-11 1.93125e-11 -2.60255e-10) (1.34923e-11 -2.38963e-11 7.12325e-11) (1.46501e-11 5.84222e-11 1.32519e-11) (2.26355e-11 2.23907e-11 -2.8212e-10) (-4.14971e-11 -2.44694e-11 -4.04251e-10) (-1.57537e-11 1.89332e-11 -4.91478e-10)
800           (2.1351e-12 -5.96082e-12 4.29812e-13) (-5.91076e-11 -7.65402e-12 -1.53993e-10) (-5.61828e-12 1.38595e-11 -1.15726e-10) (1.68589e-11 -2.54944e-11 -3.40675e-10) (8.20137e-12 -1.70413e-11 -5.17385e-10) (1.09469e-11 2.96238e-11 -2.79821e-10) (-2.85694e-11 3.55393e-11 -4.63067e-10) (-1.03074e-11 -1.08247e-11 -2.53149e-10) (-5.27532e-11 -5.25551e-12 -1.17394e-10) (-2.86416e-13 6.68586e-12 -1.10319e-10) (1.13732e-11 -1.12695e-12 -3.04839e-10)
850           (3.16262e-11 2.65363e-11 2.08187e-12) (2.29124e-12 -1.48551e-11 -3.15764e-10) (-4.0022e-11 1.1959e-11 -4.03047e-10) (-4.22221e-11 7.23627e-12 -4.67681e-10) (3.96627e-11 -4.17471e-12 -7.38815e-10) (-6.31774e-11 -2.67243e-12 -6.81418e-10) (2.26458e-11 6.92557e-11 -8.45399e-10) (5.98863e-11 8.41402e-11 -8.74263e-10) (-2.44264e-11 1.694e-11 -9.10181e-10) (5.28602e-11 -3.42535e-11 -9.24239e-10) (-2.81327e-12 -1.45428e-11 -1.03228e-09)
900           (5.12985e-12 1.68673e-12 -1.09645e-12) (6.0018e-11 1.36805e-11 9.6393e-12) (-2.254e-11 -2.2087e-12 -4.41196e-10) (-1.20726e-12 1.43379e-11 -4.09823e-10) (-5.28727e-11 -4.8959e-11 -3.83827e-10) (-3.01515e-11 2.52441e-11 -3.45487e-10) (1.51425e-11 -3.95209e-11 -6.97104e-10) (-1.34183e-11 -1.07283e-11 -9.42936e-10) (3.99796e-11 -8.33064e-12 -1.28007e-09) (2.69391e-12 -2.27514e-12 -1.51623e-09) (-5.47631e-13 -2.80704e-12 -1.94416e-09)
950           (1.39029e-11 1.2656e-12 3.55976e-11) (-5.86625e-11 -5.68317e-12 1.95476e-10) (2.98316e-12 -6.10246e-11 6.74743e-11) (3.6713e-11 -9.12255e-12 -9.17785e-11) (-1.68237e-11 2.7526e-11 -4.07359e-10) (1.96537e-11 8.36002e-11 -3.09987e-10) (2.92708e-12 -1.40777e-11 -2.32987e-10) (1.5825e-11 -3.54919e-11 -5.73229e-10) (-7.86913e-13 7.87196e-12 -6.39599e-10) (1.69349e-11 -2.1744e-11 -6.00101e-10) (1.90131e-11 -1.34177e-12 -4.58816e-10)
1000          (-8.67735e-13 4.0276e-12 1.93696e-11) (1.74132e-11 1.58225e-11 5.78575e-11) (1.01408e-11 -1.43914e-11 -1.13888e-10) (-7.50317e-11 -2.2946e-13 -4.51457e-10) (-1.44542e-11 -1.43718e-11 -3.22375e-10) (2.28114e-11 3.2328e-11 -4.68217e-10) (-5.50199e-13 -1.04302e-11 -7.29842e-10) (-4.96235e-11 5.32663e-11 -1.26126e-09) (1.02588e-11 -3.96148e-12 -8.8404e-10) (-7.18822e-12 2.29943e-11 -7.19001e-10) (-2.32764e-12 -3.16625e-12 -9.57133e-10)
1050          (-6.54535e-12 -1.1703e-11 -1.50285e-12) (-3.49783e-11 -6.10904e-12 -1.98066e-10) (-4.3269e-11 -5.76776e-12 -1.89932e-10) (-1.43742e-11 -3.02186e-11 -2.02335e-11) (1.59848e-11 8.05025e-12 -1.78196e-10) (-3.56909e-11 -4.40424e-11 -1.50563e-10) (4.03327e-12 2.29978e-11 -1.27369e-10) (-6.06936e-12 2.43077e-11 -4.63262e-10) (4.34115e-13 -1.24629e-11 -2.77723e-10) (-3.19639e-11 2.21844e-11 2.99045e-11) (-8.21626e-13 3.33979e-13 2.99997e-11)
1100          (1.38941e-11 1.58128e-11 3.43665e-11) (-4.54701e-12 -3.39947e-12 4.33863e-11) (4.96072e-11 -1.38065e-11 5.3967e-11) (-4.33563e-11 1.4283e-11 -9.75566e-11) (-1.87969e-11 8.58166e-11 -1.64153e-10) (4.89414e-11 2.88216e-11 -4.2891e-10) (4.173e-11 1.94905e-11 -6.08264e-10) (1.41235e-11 3.2751e-11 -8.22863e-10) (4.55645e-12 -2.73937e-11 -8.07586e-10) (3.17555e-11 -3.33688e-11 -1.02116e-09) (-2.0837e-11 -3.93115e-11 -1.21075e-09)
1150          (-4.76259e-12 3.65295e-12 9.99229e-12) (-4.6692e-11 -2.97433e-12 -3.4529e-10) (-1.51652e-11 -1.47032e-11 -2.47475e-10) (-6.201e-13 7.14793e-11 -5.81884e-10) (-7.899e-12 1.61981e-11 -3.07636e-10) (-4.29698e-13 -4.28067e-13 -5.68849e-10) (-1.53697e-11 -1.06867e-11 -5.69063e-10) (2.26858e-11 3.5338e-11 -9.63942e-10) (-1.90137e-12 -9.00665e-11 -1.02899e-09) (-1.25383e-11 -6.51053e-11 -1.21173e-09) (-2.84687e-12 -2.59498e-12 -9.17552e-10)
1200          (-2.89746e-12 -1.82259e-11 2.76008e-12) (-1.8079e-11 1.60128e-11 -4.69124e-11) (-1.5962e-11 -4.37013e-11 3.12584e-10) (2.02332e-11 -9.47662e-11 3.12623e-10) (9.35467e-12 -3.28756e-11 1.66009e-10) (2.70913e-11 -8.63192e-12 -7.3182e-11) (1.45034e-11 5.52818e-12 8.58371e-12) (1.61088e-11 -6.86429e-12 -4.47332e-11) (2.52572e-12 9.68271e-12 1.06771e-10) (5.21642e-12 1.42154e-11 2.25406e-10) (5.43128e-13 3.58971e-13 4.17103e-10)
1250          (-1.77802e-12 -1.3018e-12 -7.76184e-12) (-2.27774e-11 2.66028e-11 2.18304e-11) (2.35632e-11 2.83767e-11 -2.60536e-10) (3.24901e-12 4.45003e-11 -4.72808e-11) (-2.94581e-11 -3.68313e-11 -2.17759e-10) (1.41725e-11 1.16794e-11 -1.64525e-10) (2.67871e-11 -2.49341e-11 -4.38987e-10) (6.41358e-13 2.9239e-11 -2.32506e-10) (-3.09506e-11 -5.35836e-12 -1.84498e-11) (-1.29176e-10 5.37401e-11 -4.67589e-10) (-2.21831e-11 -1.19199e-12 -2.34861e-10)
1300          (-2.01604e-11 -9.86515e-12 -3.66193e-11) (-2.47819e-11 -3.17169e-12 -2.37051e-10) (-1.49942e-11 1.52983e-12 -5.39869e-10) (2.55262e-11 -1.07715e-12 -6.20858e-10) (5.32086e-12 -6.15574e-11 -7.6931e-10) (3.68008e-11 -2.55698e-11 -1.10561e-09) (-3.54484e-11 4.05612e-11 -1.23309e-09) (1.66401e-12 6.22153e-11 -9.26032e-10) (3.41845e-11 1.28977e-11 -1.03391e-09) (3.34124e-11 -4.10703e-11 -1.15677e-09) (-1.47372e-11 1.51091e-11 -1.49594e-09)
1350          (-1.97733e-11 -1.55795e-11 2.52805e-11) (1.36548e-12 -4.83789e-12 -1.60871e-11) (1.4899e-11 -7.55713e-12 7.21479e-11) (-1.82562e-12 1.19342e-11 -1.31902e-10) (4.87336e-11 -2.08354e-12 -2.78756e-10) (-2.95579e-11 2.52321e-12 -5.11907e-10) (9.62699e-12 -2.56641e-11 -4.99488e-10) (-9.74029e-12 7.59059e-12 -4.86255e-10) (1.04827e-11 -1.26196e-11 -3.91164e-10) (1.13835e-11 -2.21319e-11 -4.80289e-10) (-3.89351e-11 1.93329e-13 -6.07413e-10)
1400          (-1.35865e-12 -3.55018e-13 3.33216e-13) (-2.78482e-11 -1.63589e-11 -4.58469e-11) (4.48822e-11 1.18348e-11 -5.42642e-10) (3.57267e-11 7.12125e-12 -8.17546e-10) (-3.74063e-11 4.89437e-12 -2.69911e-10) (7.36777e-12 -3.53509e-11 -3.94183e-10) (-6.86699e-12 7.72301e-12 -6.45039e-10) (-3.34756e-11 2.59555e-12 -6.49658e-10) (-6.43726e-11 4.74006e-11 -5.06e-10) (7.26243e-11 3.35624e-11 -6.41994e-10) (1.50077e-12 4.28262e-11 -1.12733e-09)
1450          (5.08239e-12 -1.25128e-11 1.75126e-11) (-1.04584e-11 7.37633e-13 -1.03296e-10) (-1.70133e-11 -7.47012e-12 -1.54659e-10) (-8.69062e-12 7.48867e-12 -3.05872e-10) (-1.07267e-11 -1.41589e-11 -7.74455e-11) (-1.87148e-11 6.56796e-12 -2.41918e-10) (1.85542e-12 -3.21643e-12 -2.79832e-10) (1.5696e-12 2.38835e-11 -3.17215e-10) (2.40566e-11 6.91922e-12 -1.30317e-10) (-2.51e-11 -8.0596e-12 -2.05598e-10) (1.65266e-11 4.64731e-12 -2.50817e-11)
1500          (1.33635e-11 -7.14473e-12 1.87805e-11) (4.46223e-11 1.16676e-11 -1.32818e-11) (3.16676e-11 -3.00242e-11 2.39712e-11) (-3.96825e-13 2.37418e-11 -9.28561e-11) (-7.116e-13 1.03316e-11 -1.72072e-10) (1.90129e-11 -5.96711e-11 -3.64423e-10) (-1.5687e-11 1.42071e-11 -8.46784e-10) (1.30825e-11 9.09881e-12 -1.17101e-09) (-2.2742e-11 1.71691e-11 -1.10249e-09) (-2.7415e-11 1.13781e-11 -1.06902e-09) (-1.69861e-11 2.49557e-12 -1.07028e-09)
1550          (-1.73014e-11 -9.34686e-12 1.44253e-11) (-2.92141e-11 -2.71038e-11 -1.16642e-10) (1.90872e-12 1.31641e-11 -1.50203e-10) (1.08691e-11 4.79487e-12 -1.02272e-10) (2.51597e-11 -3.39171e-13 -2.54017e-10) (6.18886e-12 -1.03721e-11 -8.72668e-11) (2.5314e-11 -2.04571e-11 -3.33866e-10) (-2.50124e-11 1.60793e-11 -1.55765e-10) (1.83404e-11 -6.23383e-12 -2.01461e-10) (3.07726e-11 5.06345e-11 -1.36616e-10) (1.55511e-11 -1.25825e-11 5.81071e-11)
1600          (-1.95077e-11 1.42984e-11 -2.93682e-11) (-5.82152e-12 -3.33521e-11 1.11089e-10) (-6.4698e-11 5.85332e-12 -2.62916e-10) (2.08441e-12 -8.03295e-12 -5.73735e-11) (-1.63634e-11 -5.12554e-12 -9.45885e-12) (-2.62583e-11 2.18034e-12 -3.17492e-10) (-3.64162e-11 -1.19349e-11 -4.29865e-10) (4.0573e-12 -7.82901e-12 -4.93656e-10) (-3.753e-11 5.45787e-11 -2.02398e-10) (-8.07041e-12 5.25718e-11 -8.01713e-10) (1.29001e-11 2.9163e-11 -6.0401e-10)
1650          (-1.60037e-11 -9.46146e-13 3.52823e-11) (-7.80723e-11 7.10237e-11 -3.08755e-10) (2.21346e-11 -3.53778e-11 -1.79446e-10) (-1.22774e-11 1.44426e-11 -4.50531e-10) (7.5887e-12 -1.65954e-12 2.93991e-11) (2.078e-11 -1.85927e-11 -7.74672e-11) (-1.36454e-11 1.90169e-11 -2.50137e-10) (2.20108e-11 3.90908e-11 -2.5621e-10) (7.46908e-12 5.53557e-11 -4.59877e-10) (1.17707e-12 1.20969e-11 -4.41999e-10) (8.76332e-12 8.2498e-12 -3.4586e-10)
1700          (3.72497e-11 5.77184e-12 1.09383e-12) (-7.77723e-12 -6.4811e-11 -2.88154e-10) (2.17182e-11 -2.3702e-11 -1.28864e-10) (1.62012e-12 -1.72835e-11 -9.00973e-11) (-5.91532e-12 2.98285e-11 -3.68616e-11) (-2.25141e-11 3.52244e-11 -7.62044e-11) (-1.7967e-11 -1.25925e-11 -4.19757e-10) (-5.22139e-12 -2.14379e-12 -2.12585e-11) (4.09637e-12 1.51143e-11 -1.05335e-10) (-8.51658e-12 -3.47872e-12 2.45194e-10) (-8.13265e-13 -5.39673e-12 -9.68182e-12)
1750          (-1.11177e-11 -1.1397e-11 2.73866e-11) (-5.00084e-12 -1.27522e-11 5.238e-11) (2.21145e-11 -3.50886e-11 2.68524e-10) (2.63157e-11 -2.23096e-11 -2.69649e-10) (1.0814e-11 -1.20329e-11 1.22712e-10) (-5.16048e-12 -2.88159e-11 -1.11616e-10) (5.02627e-12 1.61203e-11 -2.22628e-10) (-2.9874e-11 3.86834e-11 -2.38997e-10) (-1.67513e-12 1.61631e-11 -4.81149e-10) (-7.01984e-11 4.5041e-11 -7.62819e-10) (-1.2529e-11 1.18834e-11 -5.97317e-10)
1800          (-9.45131e-12 -2.34332e-12 -1.78923e-11) (-1.02536e-11 -2.08496e-11 -2.70835e-11) (-9.97648e-12 8.39305e-13 -2.31751e-10) (1.21034e-11 -8.02451e-12 -3.47006e-10) (-8.4376e-11 -3.28269e-11 -4.51346e-10) (-2.23921e-12 9.5739e-12 -1.44333e-10) (-4.10213e-11 3.41367e-11 -6.08715e-10) (1.4765e-11 -9.49646e-12 -3.24913e-10) (3.14637e-11 -1.14324e-11 -5.06469e-10) (2.53549e-11 -1.79333e-12 -4.77743e-10) (-9.11062e-12 2.2202e-12 -8.23673e-10)
1850          (1.69708e-12 2.13002e-12 9.41908e-13) (-4.85694e-11 -5.87777e-11 -2.22271e-10) (2.15804e-12 3.4409e-12 -9.63167e-11) (1.8331e-11 -4.43376e-12 -2.51349e-10) (7.08014e-11 -6.66104e-12 -4.53806e-10) (1.23667e-11 -4.80194e-11 -3.21332e-10) (5.98408e-13 -5.60325e-11 -5.05686e-10) (-1.53312e-11 -3.0305e-12 -8.88801e-10) (2.92056e-11 -2.8682e-12 -1.06231e-09) (-4.71548e-11 -2.56252e-11 -1.2417e-09) (-3.681e-11 -9.61586e-13 -1.60742e-09)
1900          (3.00553e-11 -9.37911e-12 -4.45616e-12) (-3.8732e-11 -5.79963e-11 -1.50603e-10) (-2.782e-11 2.99861e-11 -6.76758e-10) (1.54383e-11 3.78456e-11 -5.26514e-10) (9.12085e-12 1.42619e-11 -3.23067e-10) (-1.14557e-11 3.15478e-12 -2.23776e-10) (-3.88731e-11 -3.58631e-13 -3.5016e-10) (6.91113e-12 8.14828e-12 -5.9381e-10) (3.05908e-11 4.07794e-12 -3.6617e-10) (-3.72806e-11 -1.26554e-11 -2.80255e-10) (9.43692e-12 1.49592e-11 -1.85308e-10)
1950          (5.3426e-13 -1.56641e-11 -1.27768e-11) (2.09075e-11 6.52971e-12 -1.28012e-10) (3.05339e-11 -1.00031e-11 -1.26617e-10) (-3.40616e-11 -3.86363e-11 -2.51385e-10) (1.80205e-11 3.27629e-11 -5.12599e-10) (-1.26222e-11 -5.63982e-11 -7.49096e-10) (3.38995e-11 2.49764e-12 -1.19171e-09) (-7.29405e-12 -1.22892e-11 -7.72037e-10) (-4.02975e-11 1.91481e-11 -9.55584e-10) (2.75522e-11 -4.56562e-11 -4.77975e-10) (-2.71181e-12 8.8623e-13 -2.24621e-10)
2000          (-2.01118e-11 1.13236e-11 -7.52574e-11) (6.0956e-12 1.49681e-12 2.09444e-10) (-2.75402e-11 2.16845e-11 1.95892e-10) (2.17532e-11 -3.50578e-11 1.48073e-10) (-3.69583e-11 2.34585e-11 2.17143e-10) (-2.80125e-11 4.41194e-12 1.77691e-10) (4.46603e-11 3.82786e-12 3.01508e-10) (-2.52006e-12 -2.00821e-11 7.32037e-10) (-9.01513e-12 4.88959e-11 4.95145e-10) (3.03853e-11 4.03858e-12 2.00956e-10) (1.45291e-11 -4.72088e-12 1.70099e-10)
2050          (-3.1993e-12 -4.47115e-12 3.13784e-13) (1.3641e-13 -2.18404e-11 -2.04415e-10) (-3.23315e-11 -2.03414e-11 -2.04684e-10) (-1.73437e-11 4.8608e-11 -3.46906e-10) (-3.75488e-11 3.8509e-11 1.22167e-10) (9.19973e-12 -1.65178e-11 3.17354e-10) (1.18794e-11 -2.07249e-11 4.35633e-10) (-1.77262e-11 -1.2435e-12 4.79273e-10) (3.64375e-11 3.19151e-11 7.10788e-10) (-4.60671e-11 1.71103e-11 6.07597e-10) (-5.30222e-13 1.54678e-12 9.45805e-10)
2100          (-2.57833e-12 -2.75619e-11 -3.28533e-11) (-1.43804e-11 4.36169e-12 -6.62782e-13) (2.25337e-11 -6.27625e-12 1.60557e-10) (-3.29685e-12 3.41138e-11 1.87979e-10) (1.84595e-12 3.4624e-11 2.93049e-11) (5.62147e-11 1.1116e-11 -9.32578e-12) (6.39755e-11 -3.63103e-13 1.30612e-11) (-3.63432e-11 3.25965e-11 -1.98672e-10) (-1.03339e-11 4.07136e-11 -3.48874e-10) (8.87306e-12 3.33807e-11 -5.76611e-10) (-2.13903e-12 1.42656e-11 -1.05041e-09)
2150          (-1.05205e-11 -3.37472e-11 -4.71815e-12) (-5.58807e-12 4.79559e-12 1.121e-10) (1.5562e-11 5.41168e-12 -6.96984e-11) (-2.38793e-11 2.64503e-12 -1.43275e-10) (-2.20456e-12 2.07706e-11 -1.40253e-10) (-2.27845e-11 -2.73835e-11 -3.36074e-10) (4.82725e-12 9.50119e-12 -1.70249e-10) (-7.8986e-12 4.37553e-11 -3.67825e-10) (2.06004e-11 9.31831e-12 -1.87163e-10) (-1.03538e-12 -3.49827e-11 -3.48262e-11) (-1.09022e-11 -1.62453e-11 -8.34358e-11)
2200          (-8.53872e-12 -1.65961e-11 -1.94132e-11) (-3.4762e-11 -3.79728e-11 -2.76016e-11) (-2.73654e-12 -1.06704e-10 1.4761e-10) (3.34388e-11 3.63294e-12 5.00684e-10) (-6.23397e-12 8.88705e-12 1.29863e-10) (2.64227e-12 -1.22918e-11 2.93993e-10) (-9.60908e-12 1.57619e-11 1.40727e-10) (-3.58326e-11 -1.81324e-12 7.65026e-11) (-3.51109e-11 -2.88471e-11 -1.19399e-10) (1.32151e-11 2.19677e-11 -1.45104e-10) (-1.75835e-13 2.55493e-12 -6.90387e-11)
2250          (-1.09162e-11 2.17619e-11 -7.53119e-11) (-2.27998e-11 -1.87906e-12 -5.40904e-11) (-6.99336e-11 -9.77366e-11 -3.19984e-10) (-1.99449e-11 -5.2449e-12 -1.97227e-10) (4.51052e-11 -2.73202e-11 -4.71115e-10) (2.29347e-11 -2.64549e-12 -5.9458e-10) (-1.64856e-13 5.33424e-12 -2.715e-10) (-8.57841e-12 -6.77903e-11 -5.55383e-10) (-1.33592e-11 -1.57396e-11 -5.19092e-10) (4.57001e-11 1.07539e-12 -3.41398e-10) (-1.77815e-11 -1.20892e-11 -5.02797e-10)
2300          (-4.89588e-12 3.78536e-13 1.56707e-11) (9.19151e-12 1.65688e-11 4.62413e-11) (-1.88538e-11 -7.95438e-11 1.06689e-10) (3.76293e-11 4.61331e-12 2.04549e-10) (2.55332e-11 -3.87711e-12 -4.4998e-11) (8.34175e-12 -9.98749e-12 -5.48241e-11) (2.62954e-11 5.16579e-11 -2.38887e-10) (-1.69859e-11 1.34482e-12 -4.23486e-10) (6.80086e-12 -1.76261e-11 -5.06138e-10) (-2.30836e-12 1.58803e-11 -5.9111e-10) (3.52683e-13 -1.75621e-11 -6.44844e-10)
2350          (-4.50614e-12 1.94375e-12 -1.27402e-10) (-1.61773e-11 -5.95935e-12 4.75109e-11) (-7.074e-11 1.72796e-11 -2.61912e-11) (3.73795e-11 1.76107e-11 -2.78529e-10) (5.54813e-12 4.98584e-12 -7.5371e-11) (-2.53443e-12 -4.55617e-11 -1.2741e-10) (1.19002e-12 4.24853e-11 -1.14994e-10) (1.98877e-11 3.21744e-11 -3.24106e-10) (4.00166e-11 1.85134e-11 -8.29648e-11) (-2.15596e-11 5.28987e-12 -1.85202e-10) (2.91252e-12 -9.03312e-13 3.77667e-11)
2400          (1.43059e-11 7.15568e-13 3.78445e-11) (-2.52759e-11 -7.72065e-12 -1.21423e-10) (-3.57046e-11 2.49149e-11 -3.6558e-10) (2.84103e-11 3.17585e-11 -3.03381e-10) (1.32729e-11 1.24708e-11 -3.94689e-11) (1.27439e-11 1.27676e-11 -3.71678e-11) (4.80253e-11 1.69638e-11 1.30563e-10) (8.86685e-11 8.0847e-11 6.12827e-10) (1.04382e-12 -1.26467e-11 5.62343e-10) (-2.3703e-11 -2.76235e-11 5.74786e-10) (-2.52589e-11 -1.96986e-11 6.41418e-10)
2450          (1.1974e-12 -4.76579e-13 2.12662e-13) (6.04249e-12 6.5701e-12 1.56245e-10) (-6.82972e-12 -1.44886e-11 2.4086e-10) (-3.42389e-12 1.29925e-11 5.02325e-10) (2.83545e-11 4.61509e-11 4.02994e-10) (1.38927e-11 2.93111e-11 6.74869e-10) (5.65192e-11 5.61917e-12 5.83819e-10) (-4.2278e-12 2.81863e-11 7.33049e-10) (5.72661e-12 -3.75188e-11 6.89783e-10) (-3.94483e-11 1.68206e-11 5.37249e-10) (-1.06782e-11 -1.92463e-11 4.11037e-10)
2500          (-9.4927e-12 -5.10631e-12 2.33386e-11) (-2.02131e-11 2.252e-11 -8.09426e-11) (7.79706e-11 -8.47377e-14 -1.44657e-10) (7.42629e-12 -1.52476e-11 -1.83519e-10) (5.77731e-11 -9.34151e-11 -4.96707e-10) (-3.58155e-11 -6.67692e-11 -5.70036e-10) (-1.34371e-11 -1.69208e-12 -8.36741e-10) (6.75438e-11 2.21329e-11 -1.60213e-09) (-2.10704e-11 3.49001e-11 -1.17426e-09) (-1.45232e-11 1.25327e-11 -1.13438e-09) (-3.59375e-12 -1.2947e-11 -1.38307e-09)
2550          (3.6036e-13 1.08273e-13 -8.13801e-12) (-1.59891e-12 -7.20143e-12 -8.89755e-12) (1.2709e-11 4.77828e-11 -2.97898e-10) (-3.25488e-12 -3.41147e-12 -6.92802e-10) (-5.7633e-12 1.64378e-11 -9.72384e-10) (-2.59696e-11 -4.7099e-11 -7.64181e-10) (2.08057e-11 7.79259e-12 -9.84769e-10) (-2.19591e-12 -4.27816e-11 -1.36759e-09) (3.04062e-11 6.51627e-12 -9.51645e-10) (2.29164e-11 -4.87741e-11 -9.56795e-10) (-3.90983e-12 5.2114e-11 -8.87408e-10)
2600          (-1.65346e-11 2.85634e-12 1.28162e-11) (-1.18036e-11 2.46108e-12 1.24439e-11) (-3.57201e-11 -1.21353e-12 1.80507e-10) (-4.11842e-11 -1.26439e-11 -4.62382e-10) (-2.67348e-13 1.22836e-11 -3.39325e-10) (6.27851e-12 9.28245e-12 -5.61658e-10) (-9.6573e-12 6.59262e-11 -5.47283e-10) (-5.09114e-12 -2.11454e-11 -6.47345e-10) (-9.10006e-12 -1.4859e-11 -7.78327e-10) (-3.22125e-11 5.72582e-12 -6.1974e-10) (-8.95589e-13 -1.60387e-11 -7.71598e-10)
2650          (9.467e-13 5.67994e-12 1.58772e-11) (-1.7743e-11 3.43397e-12 -9.47208e-11) (5.50188e-11 2.21698e-11 -9.95658e-11) (-1.44327e-11 -5.62461e-11 3.53006e-10) (-2.51121e-12 9.27347e-12 1.28188e-10) (5.19188e-11 2.0909e-12 3.02874e-10) (3.96077e-11 3.41614e-12 2.88031e-10) (2.16035e-11 5.23249e-11 -2.75291e-10) (-2.77276e-11 -2.42037e-11 -5.39769e-10) (2.84692e-11 -5.92023e-11 -3.60747e-10) (-1.41353e-11 -1.68409e-12 -4.07308e-10)
2700          (1.24573e-11 3.48812e-11 -7.42073e-11) (4.64156e-11 2.40156e-11 1.14065e-10) (1.11656e-11 -3.01476e-11 -9.43609e-11) (-2.31899e-11 1.38841e-11 -1.8683e-10) (1.23712e-11 1.02069e-11 -2.33434e-10) (-9.57279e-12 -1.35446e-11 -4.46518e-10) (7.92067e-12 6.97411e-12 -4.28845e-10) (-4.08649e-12 1.04589e-11 -2.17013e-10) (-1.9793e-11 -3.11865e-11 -4.11405e-10) (-6.54631e-13 4.47098e-11 -4.75641e-10) (1.81723e-11 1.4428e-11 -6.55921e-10)
2750          (2.49886e-12 -2.20534e-11 2.37112e-11) (-1.35023e-11 -1.16906e-11 8.51909e-12) (4.51051e-11 -1.48047e-11 -6.74706e-11) (-4.42832e-11 -7.13926e-13 -2.92037e-10) (2.18758e-12 -7.30291e-11 -3.81405e-10) (3.29303e-11 1.65557e-13 -4.46918e-10) (-1.94964e-11 1.62425e-11 -1.5423e-10) (1.62644e-11 -2.52415e-11 -2.4959e-10) (-4.35736e-12 1.12408e-11 -2.82978e-10) (3.71644e-13 -7.74969e-12 -5.7863e-11) (-1.8807e-12 1.58442e-11 -2.49231e-10)
2800          (-2.36643e-11 -1.16514e-12 -3.98728e-11) (1.98728e-11 -4.87597e-12 -5.63309e-11) (2.69841e-11 -2.72212e-11 -1.92878e-11) (1.51855e-11 1.47789e-11 7.68209e-11) (-2.26441e-11 1.5535e-11 6.63756e-11) (2.76186e-11 4.28734e-11 -2.34789e-10) (-1.89355e-11 -2.37816e-11 -1.15893e-10) (1.32129e-11 -2.69525e-12 -1.35246e-10) (-2.45056e-11 1.63401e-11 -3.83825e-10) (-1.3858e-12 1.08415e-11 -1.36368e-10) (-1.30073e-11 -1.95075e-11 -8.35139e-10)
2850          (-1.67924e-11 -1.17583e-11 1.83956e-12) (-1.31189e-11 -1.47306e-11 2.71136e-12) (3.86086e-11 -3.8612e-11 -2.69605e-10) (1.25882e-11 7.97829e-12 -2.10286e-10) (-3.37697e-11 -2.40457e-11 -6.78112e-11) (6.40967e-11 -3.87381e-12 4.43067e-11) (4.3649e-11 1.33271e-11 1.46742e-10) (4.20476e-11 -2.81788e-11 4.20587e-10) (6.58118e-12 -1.59583e-11 2.23244e-10) (1.73648e-11 1.17048e-11 1.0483e-10) (-1.53698e-11 -3.1232e-11 1.31297e-10)
2900          (1.16673e-11 3.62087e-11 -5.20187e-11) (-3.07263e-12 -4.52702e-11 -7.48369e-11) (1.60144e-11 -4.68669e-11 -5.47023e-10) (1.90307e-11 4.90949e-12 -4.77533e-10) (-5.01449e-12 -1.07985e-11 -4.91358e-10) (2.02686e-11 5.51034e-12 -3.83486e-10) (1.69611e-12 -1.54817e-11 -1.59108e-10) (8.89069e-12 5.72169e-12 -2.58939e-10) (-1.07481e-11 -9.70349e-12 1.95809e-10) (-5.98504e-12 -3.50872e-12 1.98428e-10) (1.52926e-11 1.49863e-11 2.5911e-10)
2950          (3.90777e-11 -3.85767e-11 4.40924e-11) (6.23146e-12 2.42401e-11 -2.48953e-11) (-3.12511e-11 2.00642e-11 -1.89252e-11) (-1.64348e-11 4.95148e-12 2.71674e-10) (1.1988e-11 -2.55294e-11 6.54743e-11) (9.38074e-12 3.83362e-11 -3.63735e-11) (-7.13286e-12 1.90868e-11 -3.02073e-11) (1.76967e-11 -9.19219e-12 -7.71317e-11) (4.67624e-12 3.33305e-11 -6.31391e-11) (3.32294e-11 -6.13458e-11 1.08707e-10) (1.72097e-11 1.81705e-11 -1.6325e-10)
3000          (2.94706e-11 1.7311e-11 1.00588e-12) (1.03386e-11 2.74017e-11 -3.86143e-10) (3.45255e-11 4.94457e-11 -4.49014e-10) (-2.90846e-11 -4.40875e-11 -1.61769e-10) (-1.31608e-11 -2.78906e-11 -3.57615e-10) (-2.96365e-11 -1.9603e-11 -4.2831e-10) (-1.92699e-12 -9.2172e-12 -7.63385e-10) (3.02556e-11 1.50048e-11 -6.63714e-10) (-4.28747e-12 -1.06361e-12 -7.27304e-10) (-6.19704e-11 -4.20153e-11 -9.48024e-10) (2.03978e-11 1.27413e-12 -9.29825e-10)
3050          (1.48124e-11 -3.18652e-11 -2.3618e-11) (7.57495e-12 -2.55332e-11 -1.42909e-10) (9.65738e-12 1.02993e-11 -3.39253e-10) (1.01528e-11 9.69285e-12 -1.45547e-10) (1.20549e-11 2.40766e-11 -5.47041e-10) (-3.37425e-11 4.14808e-12 -3.48867e-10) (-1.63115e-11 -1.54639e-11 -4.73836e-10) (-2.0735e-11 -4.87226e-11 -7.06156e-10) (-1.33143e-11 -4.55279e-11 -3.79372e-10) (-1.25654e-11 -4.31918e-11 -8.45168e-10) (2.57771e-11 -4.93452e-12 -4.43106e-10)
3100          (2.91454e-11 8.17008e-12 3.69806e-11) (4.51698e-12 -3.09103e-12 -1.50721e-10) (1.87097e-11 1.69117e-12 -1.02129e-10) (-1.07838e-11 -4.98042e-11 -2.49809e-10) (-1.74498e-11 3.13498e-12 -1.28e-10) (9.39943e-12 -2.63844e-11 -1.84673e-10) (3.99894e-11 -1.13134e-12 -2.22606e-10) (3.40926e-11 2.86811e-11 -5.13638e-10) (4.46242e-13 3.26288e-12 -2.06143e-10) (-3.04891e-11 -6.36015e-11 -3.69825e-10) (-1.96508e-11 -2.03937e-11 -6.68907e-10)
3150          (1.03775e-11 -1.13422e-11 -2.21684e-11) (1.0826e-11 3.61286e-11 -2.9755e-10) (-3.83526e-12 -5.11215e-11 -4.40268e-10) (-6.57013e-11 -4.77336e-11 -5.21385e-10) (2.99695e-12 -3.19585e-11 -3.5719e-10) (-1.75059e-11 2.2293e-11 -4.70237e-10) (1.37892e-14 -3.66376e-11 -4.69119e-10) (-4.46346e-11 -5.5105e-11 -6.64117e-10) (-1.68184e-11 -3.38616e-12 -5.66582e-10) (-2.27648e-11 2.47059e-11 -5.05184e-10) (-3.83584e-11 7.82363e-12 -5.4186e-10)
3200          (2.10365e-11 1.11661e-11 5.1254e-11) (-2.1182e-13 -1.94995e-13 -9.52752e-11) (1.30489e-11 6.23148e-12 -4.88642e-10) (3.32934e-11 1.75702e-11 -4.46039e-10) (1.98874e-11 5.55258e-11 -3.63683e-10) (-1.77761e-11 -1.1476e-11 -3.77044e-11) (-5.30505e-11 4.07423e-11 7.37782e-11) (2.76973e-12 1.14749e-11 3.43307e-10) (9.65472e-12 -2.0531e-12 5.2624e-10) (1.80227e-11 1.03276e-11 5.63806e-10) (-1.64872e-11 -2.3768e-12 8.18542e-10)
3250          (-9.4909e-13 -4.58272e-12 5.04037e-12) (-2.40022e-11 -3.87043e-12 -1.24551e-10) (3.01825e-11 -1.54983e-11 -3.2146e-10) (-4.36257e-11 -2.20676e-11 -7.20785e-10) (7.60916e-12 6.36045e-11 -5.94439e-10) (-4.48715e-11 -8.41262e-12 -5.17965e-10) (7.90915e-12 -1.06458e-11 -6.80424e-10) (-2.32821e-11 -7.70115e-12 -7.84455e-10) (5.86687e-11 2.07142e-11 -8.24658e-10) (1.20564e-11 4.23311e-11 -5.14601e-10) (6.03891e-12 1.19567e-12 -2.60827e-11)