# Wall heat-flux
# Time        	patch         	min           	max           	integral      
1.000000e+02	inlet	0.000000e+00	0.000000e+00	0.000000e+00
1.000000e+02	outlet	0.000000e+00	0.000000e+00	0.000000e+00
1.000000e+02	cool1	4.034307e+01	7.343587e+01	1.562360e+01
1.000000e+02	cool2	5.370562e+01	9.389243e+01	2.033027e+01
1.000000e+02	cool3	1.073032e+02	2.426773e+02	5.513869e+02
1.000000e+02	cool4	1.921255e+02	3.510801e+02	7.293280e+01
1.000000e+02	cool5	1.747422e+02	3.056221e+02	6.331927e+01
1.000000e+02	hot1	1.114905e+03	6.867377e+03	2.477505e+02
1.000000e+02	hot2	1.831674e+03	1.165122e+04	2.757562e+03
1.000000e+02	hot3	3.973746e+03	1.610886e+04	6.401581e+02
2.000000e+02	inlet	0.000000e+00	0.000000e+00	0.000000e+00
2.000000e+02	outlet	0.000000e+00	0.000000e+00	0.000000e+00
2.000000e+02	cool1	1.913366e+01	4.760308e+01	9.307244e+00
2.000000e+02	cool2	3.556167e+01	6.764944e+01	1.458625e+01
2.000000e+02	cool3	8.216652e+01	2.030252e+02	4.380999e+02
2.000000e+02	cool4	1.629880e+02	3.003681e+02	6.164437e+01
2.000000e+02	cool5	1.388774e+02	2.595116e+02	5.178888e+01
2.000000e+02	hot1	1.014735e+03	6.490420e+03	2.274367e+02
2.000000e+02	hot2	1.692580e+03	1.111288e+04	2.620644e+03
2.000000e+02	hot3	3.717447e+03	1.563231e+04	6.183936e+02
3.000000e+02	inlet	0.000000e+00	0.000000e+00	0.000000e+00
3.000000e+02	outlet	0.000000e+00	0.000000e+00	0.000000e+00
3.000000e+02	cool1	3.530646e+00	3.161690e+01	5.185182e+00
3.000000e+02	cool2	2.507138e+01	5.238195e+01	1.093630e+01
3.000000e+02	cool3	6.629454e+01	1.791395e+02	3.721961e+02
3.000000e+02	cool4	1.434147e+02	2.671028e+02	5.486576e+01
3.000000e+02	cool5	1.158146e+02	2.286449e+02	4.449125e+01
3.000000e+02	hot1	9.472220e+02	6.219290e+03	2.133179e+02
3.000000e+02	hot2	1.604890e+03	1.075137e+04	2.526345e+03
3.000000e+02	hot3	3.557232e+03	1.525547e+04	6.028123e+02
4.000000e+02	inlet	0.000000e+00	0.000000e+00	0.000000e+00
4.000000e+02	outlet	0.000000e+00	0.000000e+00	0.000000e+00
4.000000e+02	cool1	-8.254741e+00	1.930901e+01	2.064593e+00
4.000000e+02	cool2	1.748865e+01	4.023366e+01	8.166451e+00
4.000000e+02	cool3	5.559820e+01	1.616266e+02	3.265889e+02
4.000000e+02	cool4	1.302752e+02	2.431148e+02	5.014687e+01
4.000000e+02	cool5	1.005904e+02	2.052487e+02	3.937457e+01
4.000000e+02	hot1	8.983696e+02	6.003239e+03	2.024618e+02
4.000000e+02	hot2	1.529296e+03	1.047717e+04	2.454083e+03
4.000000e+02	hot3	3.443293e+03	1.496586e+04	5.906582e+02
5.000000e+02	inlet	0.000000e+00	0.000000e+00	0.000000e+00
5.000000e+02	outlet	0.000000e+00	0.000000e+00	0.000000e+00
5.000000e+02	cool1	-1.694139e+01	9.831617e+00	-5.194395e-01
5.000000e+02	cool2	9.981469e+00	2.973869e+01	5.846338e+00
5.000000e+02	cool3	4.819012e+01	1.502641e+02	2.913384e+02
5.000000e+02	cool4	1.204499e+02	2.239426e+02	4.647665e+01
5.000000e+02	cool5	8.978611e+01	1.863376e+02	3.549844e+01
5.000000e+02	hot1	8.576848e+02	5.811389e+03	1.932924e+02
5.000000e+02	hot2	1.480934e+03	1.025812e+04	2.393409e+03
5.000000e+02	hot3	3.362081e+03	1.471549e+04	5.803850e+02
6.000000e+02	inlet	0.000000e+00	0.000000e+00	0.000000e+00
6.000000e+02	outlet	0.000000e+00	0.000000e+00	0.000000e+00
6.000000e+02	cool1	-2.298089e+01	2.921264e+00	-2.733447e+00
6.000000e+02	cool2	4.499868e+00	2.045047e+01	3.865235e+00
6.000000e+02	cool3	4.142850e+01	1.409170e+02	2.619449e+02
6.000000e+02	cool4	1.125770e+02	2.088275e+02	4.340842e+01
6.000000e+02	cool5	8.162761e+01	1.703517e+02	3.240887e+01
6.000000e+02	hot1	8.227600e+02	5.652867e+03	1.855745e+02
6.000000e+02	hot2	1.444473e+03	1.006486e+04	2.342195e+03
6.000000e+02	hot3	3.286672e+03	1.449609e+04	5.717291e+02
7.000000e+02	inlet	0.000000e+00	0.000000e+00	0.000000e+00
7.000000e+02	outlet	0.000000e+00	0.000000e+00	0.000000e+00
7.000000e+02	cool1	-2.951196e+01	-3.418276e+00	-4.722989e+00
7.000000e+02	cool2	-4.949501e-01	1.407456e+01	2.102343e+00
7.000000e+02	cool3	3.643494e+01	1.320559e+02	2.359599e+02
7.000000e+02	cool4	1.061518e+02	1.955233e+02	4.076789e+01
7.000000e+02	cool5	7.488397e+01	1.564993e+02	2.979442e+01
7.000000e+02	hot1	7.933914e+02	5.522978e+03	1.788257e+02
7.000000e+02	hot2	1.394855e+03	9.894039e+03	2.297227e+03
7.000000e+02	hot3	3.221856e+03	1.430974e+04	5.640354e+02
8.000000e+02	inlet	0.000000e+00	0.000000e+00	0.000000e+00
8.000000e+02	outlet	0.000000e+00	0.000000e+00	0.000000e+00
8.000000e+02	cool1	-3.675785e+01	-9.287367e+00	-6.544920e+00
8.000000e+02	cool2	-4.885213e+00	8.338907e+00	4.902300e-01
8.000000e+02	cool3	3.204376e+01	1.242665e+02	2.123731e+02
8.000000e+02	cool4	1.005976e+02	1.836705e+02	3.843587e+01
8.000000e+02	cool5	6.919747e+01	1.436295e+02	2.744426e+01
8.000000e+02	hot1	7.665470e+02	5.390051e+03	1.726566e+02
8.000000e+02	hot2	1.358679e+03	9.740143e+03	2.257345e+03
8.000000e+02	hot3	3.164276e+03	1.414706e+04	5.571370e+02
9.000000e+02	inlet	0.000000e+00	0.000000e+00	0.000000e+00
9.000000e+02	outlet	0.000000e+00	0.000000e+00	0.000000e+00
9.000000e+02	cool1	-4.390343e+01	-1.482977e+01	-8.228286e+00
9.000000e+02	cool2	-9.624666e+00	3.020528e+00	-1.016986e+00
9.000000e+02	cool3	2.640790e+01	1.171700e+02	1.905592e+02
9.000000e+02	cool4	9.569888e+01	1.726947e+02	3.625274e+01
9.000000e+02	cool5	6.403246e+01	1.318053e+02	2.525777e+01
9.000000e+02	hot1	7.418583e+02	5.265161e+03	1.670270e+02
9.000000e+02	hot2	1.326934e+03	9.600099e+03	2.221022e+03
9.000000e+02	hot3	3.113446e+03	1.400638e+04	5.509004e+02
1.000000e+03	inlet	0.000000e+00	0.000000e+00	0.000000e+00
1.000000e+03	outlet	0.000000e+00	0.000000e+00	0.000000e+00
1.000000e+03	cool1	-5.217779e+01	-1.996756e+01	-9.802683e+00
1.000000e+03	cool2	-1.482316e+01	-1.482039e+00	-2.434453e+00
1.000000e+03	cool3	2.117823e+01	1.105842e+02	1.701773e+02
1.000000e+03	cool4	8.949236e+01	1.621142e+02	3.418249e+01
1.000000e+03	cool5	5.920552e+01	1.207060e+02	2.318948e+01
1.000000e+03	hot1	7.211593e+02	5.146754e+03	1.617152e+02
1.000000e+03	hot2	1.298005e+03	9.470979e+03	2.186783e+03
1.000000e+03	hot3	3.067209e+03	1.387235e+04	5.450194e+02
1.100000e+03	inlet	0.000000e+00	0.000000e+00	0.000000e+00
1.100000e+03	outlet	0.000000e+00	0.000000e+00	0.000000e+00
1.100000e+03	cool1	-5.988412e+01	-2.472303e+01	-1.128048e+01
1.100000e+03	cool2	-1.975968e+01	-5.738606e+00	-3.764974e+00
1.100000e+03	cool3	1.614448e+01	1.043407e+02	1.509936e+02
1.100000e+03	cool4	8.410772e+01	1.531772e+02	3.220854e+01
1.100000e+03	cool5	5.439762e+01	1.101547e+02	2.120550e+01
1.100000e+03	hot1	7.009902e+02	5.041082e+03	1.569648e+02
1.100000e+03	hot2	1.271375e+03	9.353435e+03	2.155751e+03
1.100000e+03	hot3	3.020009e+03	1.375146e+04	5.396956e+02
1.200000e+03	inlet	0.000000e+00	0.000000e+00	0.000000e+00
1.200000e+03	outlet	0.000000e+00	0.000000e+00	0.000000e+00
1.200000e+03	cool1	-6.703526e+01	-2.890653e+01	-1.266989e+01
1.200000e+03	cool2	-2.437013e+01	-1.005794e+01	-5.011901e+00
1.200000e+03	cool3	1.123760e+01	9.841751e+01	1.328691e+02
1.200000e+03	cool4	7.924017e+01	1.450514e+02	3.033776e+01
1.200000e+03	cool5	4.979763e+01	9.986095e+01	1.929286e+01
1.200000e+03	hot1	6.826000e+02	4.942175e+03	1.524464e+02
1.200000e+03	hot2	1.247349e+03	9.242052e+03	2.126665e+03
1.200000e+03	hot3	2.977496e+03	1.363845e+04	5.347208e+02
1.300000e+03	inlet	0.000000e+00	0.000000e+00	0.000000e+00
1.300000e+03	outlet	0.000000e+00	0.000000e+00	0.000000e+00
1.300000e+03	cool1	-7.366227e+01	-3.295983e+01	-1.397933e+01
1.300000e+03	cool2	-2.863237e+01	-1.397477e+01	-6.181818e+00
1.300000e+03	cool3	6.562228e+00	9.276361e+01	1.156773e+02
1.300000e+03	cool4	7.479187e+01	1.372390e+02	2.854675e+01
1.300000e+03	cool5	4.528235e+01	9.005797e+01	1.744425e+01
1.300000e+03	hot1	6.656025e+02	4.846915e+03	1.481239e+02
1.300000e+03	hot2	1.223834e+03	9.137013e+03	2.098669e+03
1.300000e+03	hot3	2.936868e+03	1.352726e+04	5.299490e+02
1.400000e+03	inlet	0.000000e+00	0.000000e+00	0.000000e+00
1.400000e+03	outlet	0.000000e+00	0.000000e+00	0.000000e+00
1.400000e+03	cool1	-7.987883e+01	-3.672989e+01	-1.521591e+01
1.400000e+03	cool2	-3.258693e+01	-1.766164e+01	-7.280943e+00
1.400000e+03	cool3	8.737058e-01	8.768266e+01	9.933286e+01
1.400000e+03	cool4	7.070115e+01	1.297237e+02	2.682907e+01
1.400000e+03	cool5	3.974073e+01	8.103609e+01	1.565813e+01
1.400000e+03	hot1	6.490405e+02	4.760642e+03	1.441717e+02
1.400000e+03	hot2	1.202816e+03	9.040612e+03	2.072978e+03
1.400000e+03	hot3	2.899523e+03	1.342653e+04	5.255525e+02
1.500000e+03	inlet	0.000000e+00	0.000000e+00	0.000000e+00
1.500000e+03	outlet	0.000000e+00	0.000000e+00	0.000000e+00
1.500000e+03	cool1	-8.567361e+01	-4.026444e+01	-1.638438e+01
1.500000e+03	cool2	-3.667549e+01	-2.108021e+01	-8.311176e+00
1.500000e+03	cool3	-5.195433e+00	8.316377e+01	8.376426e+01
1.500000e+03	cool4	6.689283e+01	1.224484e+02	2.518653e+01
1.500000e+03	cool5	3.421275e+01	7.253689e+01	1.392855e+01
1.500000e+03	hot1	6.338135e+02	4.678523e+03	1.404405e+02
1.500000e+03	hot2	1.182602e+03	8.949797e+03	2.048670e+03
1.500000e+03	hot3	2.864729e+03	1.333088e+04	5.213914e+02
1.600000e+03	inlet	0.000000e+00	0.000000e+00	0.000000e+00
1.600000e+03	outlet	0.000000e+00	0.000000e+00	0.000000e+00
1.600000e+03	cool1	-9.113489e+01	-4.360664e+01	-1.748746e+01
1.600000e+03	cool2	-4.117452e+01	-2.427181e+01	-9.279102e+00
1.600000e+03	cool3	-1.102844e+01	7.892487e+01	6.892931e+01
1.600000e+03	cool4	6.329973e+01	1.153980e+02	2.360469e+01
1.600000e+03	cool5	2.899413e+01	6.437677e+01	1.224584e+01
1.600000e+03	hot1	6.195602e+02	4.600516e+03	1.368972e+02
1.600000e+03	hot2	1.163286e+03	8.863873e+03	2.025648e+03
1.600000e+03	hot3	2.832093e+03	1.323984e+04	5.174472e+02
1.700000e+03	inlet	0.000000e+00	0.000000e+00	0.000000e+00
1.700000e+03	outlet	0.000000e+00	0.000000e+00	0.000000e+00
1.700000e+03	cool1	-9.631046e+01	-4.675952e+01	-1.852775e+01
1.700000e+03	cool2	-4.542853e+01	-2.726203e+01	-1.019065e+01
1.700000e+03	cool3	-1.655481e+01	7.493927e+01	5.478676e+01
1.700000e+03	cool4	5.937329e+01	1.085794e+02	2.207980e+01
1.700000e+03	cool5	2.407981e+01	5.651982e+01	1.061873e+01
1.700000e+03	hot1	6.061471e+02	4.525827e+03	1.335143e+02
1.700000e+03	hot2	1.144382e+03	8.782433e+03	2.003586e+03
1.700000e+03	hot3	2.801714e+03	1.315197e+04	5.136619e+02
1.800000e+03	inlet	0.000000e+00	0.000000e+00	0.000000e+00
1.800000e+03	outlet	0.000000e+00	0.000000e+00	0.000000e+00
1.800000e+03	cool1	-1.012190e+02	-4.945310e+01	-1.950915e+01
1.800000e+03	cool2	-4.943178e+01	-3.007197e+01	-1.104855e+01
1.800000e+03	cool3	-2.184699e+01	7.113864e+01	4.129235e+01
1.800000e+03	cool4	5.452093e+01	1.019722e+02	2.059554e+01
1.800000e+03	cool5	1.931703e+01	4.890425e+01	9.050704e+00
1.800000e+03	hot1	5.935207e+02	4.455237e+03	1.302966e+02
1.800000e+03	hot2	1.127144e+03	8.705327e+03	1.982641e+03
1.800000e+03	hot3	2.773191e+03	1.306922e+04	5.100504e+02
1.900000e+03	inlet	0.000000e+00	0.000000e+00	0.000000e+00
1.900000e+03	outlet	0.000000e+00	0.000000e+00	0.000000e+00
1.900000e+03	cool1	-1.058787e+02	-5.192655e+01	-2.043584e+01
1.900000e+03	cool2	-5.319407e+01	-3.271459e+01	-1.185682e+01
1.900000e+03	cool3	-2.684473e+01	6.757571e+01	2.841729e+01
1.900000e+03	cool4	4.989652e+01	9.560684e+01	1.916179e+01
1.900000e+03	cool5	1.486161e+01	4.157310e+01	7.541719e+00
1.900000e+03	hot1	5.816309e+02	4.386585e+03	1.271864e+02
1.900000e+03	hot2	1.111426e+03	8.631386e+03	1.962384e+03
1.900000e+03	hot3	2.746273e+03	1.298904e+04	5.065864e+02
2.000000e+03	inlet	0.000000e+00	0.000000e+00	0.000000e+00
2.000000e+03	outlet	0.000000e+00	0.000000e+00	0.000000e+00
2.000000e+03	cool1	-1.103077e+02	-5.426796e+01	-2.130985e+01
2.000000e+03	cool2	-5.673747e+01	-3.509206e+01	-1.261954e+01
2.000000e+03	cool3	-3.223430e+01	6.421679e+01	1.610894e+01
2.000000e+03	cool4	4.543101e+01	8.945580e+01	1.778869e+01
2.000000e+03	cool5	1.067272e+01	3.450409e+01	6.084443e+00
2.000000e+03	hot1	5.704332e+02	4.322427e+03	1.242743e+02
2.000000e+03	hot2	1.096289e+03	8.561436e+03	1.943408e+03
2.000000e+03	hot3	2.720871e+03	1.291411e+04	5.033339e+02
2.100000e+03	inlet	0.000000e+00	0.000000e+00	0.000000e+00
2.100000e+03	outlet	0.000000e+00	0.000000e+00	0.000000e+00
2.100000e+03	cool1	-1.145303e+02	-5.648138e+01	-2.213410e+01
2.100000e+03	cool2	-6.006722e+01	-3.727762e+01	-1.334010e+01
2.100000e+03	cool3	-3.787573e+01	6.103322e+01	4.340351e+00
2.100000e+03	cool4	4.112291e+01	8.350551e+01	1.646029e+01
2.100000e+03	cool5	6.674447e+00	2.938736e+01	4.675131e+00
2.100000e+03	hot1	5.598085e+02	4.261419e+03	1.215011e+02
2.100000e+03	hot2	1.081458e+03	8.495465e+03	1.925311e+03
2.100000e+03	hot3	2.696700e+03	1.284244e+04	5.002297e+02
2.200000e+03	inlet	0.000000e+00	0.000000e+00	0.000000e+00
2.200000e+03	outlet	0.000000e+00	0.000000e+00	0.000000e+00
2.200000e+03	cool1	-1.185335e+02	-5.857158e+01	-2.291437e+01
2.200000e+03	cool2	-6.319080e+01	-3.930279e+01	-1.402095e+01
2.200000e+03	cool3	-4.333005e+01	5.802122e+01	-6.907686e+00
2.200000e+03	cool4	3.697465e+01	7.776095e+01	1.516950e+01
2.200000e+03	cool5	2.752913e+00	2.563907e+01	3.315890e+00
2.200000e+03	hot1	5.496628e+02	4.203220e+03	1.188552e+02
2.200000e+03	hot2	1.066912e+03	8.432853e+03	1.908047e+03
2.200000e+03	hot3	2.673271e+03	1.277393e+04	4.972670e+02
2.300000e+03	inlet	0.000000e+00	0.000000e+00	0.000000e+00
2.300000e+03	outlet	0.000000e+00	0.000000e+00	0.000000e+00
2.300000e+03	cool1	-1.223242e+02	-6.055173e+01	-2.365200e+01
2.300000e+03	cool2	-6.615411e+01	-4.121429e+01	-1.466574e+01
2.300000e+03	cool3	-4.860144e+01	5.517199e+01	-1.764970e+01
2.300000e+03	cool4	3.296532e+01	7.220686e+01	1.392159e+01
2.300000e+03	cool5	-2.119131e+00	2.194099e+01	2.005156e+00
2.300000e+03	hot1	5.400769e+02	4.147163e+03	1.163507e+02
2.300000e+03	hot2	1.052901e+03	8.373520e+03	1.891697e+03
2.300000e+03	hot3	2.651145e+03	1.270903e+04	4.944608e+02
2.400000e+03	inlet	0.000000e+00	0.000000e+00	0.000000e+00
2.400000e+03	outlet	0.000000e+00	0.000000e+00	0.000000e+00
2.400000e+03	cool1	-1.259109e+02	-6.242420e+01	-2.435129e+01
2.400000e+03	cool2	-6.896496e+01	-4.302445e+01	-1.527615e+01
2.400000e+03	cool3	-5.369900e+01	5.247388e+01	-2.793202e+01
2.400000e+03	cool4	2.909355e+01	6.683510e+01	1.271523e+01
2.400000e+03	cool5	-6.816561e+00	1.831045e+01	7.377761e-01
2.400000e+03	hot1	5.310258e+02	4.096194e+03	1.139292e+02
2.400000e+03	hot2	1.040226e+03	8.316902e+03	1.875775e+03
2.400000e+03	hot3	2.629617e+03	1.264555e+04	4.917262e+02
2.500000e+03	inlet	0.000000e+00	0.000000e+00	0.000000e+00
2.500000e+03	outlet	0.000000e+00	0.000000e+00	0.000000e+00
2.500000e+03	cool1	-1.293078e+02	-6.419868e+01	-2.501425e+01
2.500000e+03	cool2	-7.162793e+01	-4.473992e+01	-1.585433e+01
2.500000e+03	cool3	-5.862828e+01	4.993795e+01	-3.777360e+01
2.500000e+03	cool4	2.535744e+01	6.164004e+01	1.154890e+01
2.500000e+03	cool5	-1.134443e+01	1.475677e+01	-4.869855e-01
2.500000e+03	hot1	5.224565e+02	4.044096e+03	1.116253e+02
2.500000e+03	hot2	1.028403e+03	8.263179e+03	1.860733e+03
2.500000e+03	hot3	2.611042e+03	1.258561e+04	4.891352e+02
2.600000e+03	inlet	0.000000e+00	0.000000e+00	0.000000e+00
2.600000e+03	outlet	0.000000e+00	0.000000e+00	0.000000e+00
2.600000e+03	cool1	-1.325180e+02	-6.588426e+01	-2.564243e+01
2.600000e+03	cool2	-7.414944e+01	-4.636127e+01	-1.640289e+01
2.600000e+03	cool3	-6.339184e+01	4.756139e+01	-4.718976e+01
2.600000e+03	cool4	2.174481e+01	5.661674e+01	1.042098e+01
2.600000e+03	cool5	-1.571207e+01	1.128240e+01	-1.670097e+00
2.600000e+03	hot1	5.143451e+02	3.999436e+03	1.094875e+02
2.600000e+03	hot2	1.017194e+03	8.212202e+03	1.846690e+03
2.600000e+03	hot3	2.591988e+03	1.252984e+04	4.867001e+02
2.700000e+03	inlet	0.000000e+00	0.000000e+00	0.000000e+00
2.700000e+03	outlet	0.000000e+00	0.000000e+00	0.000000e+00
2.700000e+03	cool1	-1.355528e+02	-6.747176e+01	-2.623894e+01
2.700000e+03	cool2	-7.654040e+01	-4.789095e+01	-1.692384e+01
2.700000e+03	cool3	-6.799911e+01	4.531024e+01	-5.620938e+01
2.700000e+03	cool4	1.825347e+01	5.175760e+01	9.330291e+00
2.700000e+03	cool5	-1.991970e+01	7.913828e+00	-2.810863e+00
2.700000e+03	hot1	5.066547e+02	3.953620e+03	1.074082e+02
2.700000e+03	hot2	1.006589e+03	8.163286e+03	1.833146e+03
2.700000e+03	hot3	2.573574e+03	1.247599e+04	4.843490e+02
2.800000e+03	inlet	0.000000e+00	0.000000e+00	0.000000e+00
2.800000e+03	outlet	0.000000e+00	0.000000e+00	0.000000e+00
2.800000e+03	cool1	-1.384247e+02	-6.897965e+01	-2.680706e+01
2.800000e+03	cool2	-7.881084e+01	-4.935721e+01	-1.741746e+01
2.800000e+03	cool3	-7.244844e+01	4.317487e+01	-6.484699e+01
2.800000e+03	cool4	1.490655e+01	4.706431e+01	8.278126e+00
2.800000e+03	cool5	-2.396689e+01	4.635304e+00	-3.912791e+00
2.800000e+03	hot1	4.990811e+02	3.907008e+03	1.053122e+02
2.800000e+03	hot2	9.963520e+02	8.116093e+03	1.819368e+03
2.800000e+03	hot3	2.555604e+03	1.242073e+04	4.819746e+02
2.900000e+03	inlet	0.000000e+00	0.000000e+00	0.000000e+00
2.900000e+03	outlet	0.000000e+00	0.000000e+00	0.000000e+00
2.900000e+03	cool1	-1.411488e+02	-7.040607e+01	-2.734284e+01
2.900000e+03	cool2	-8.097343e+01	-5.074289e+01	-1.788891e+01
2.900000e+03	cool3	-7.674134e+01	4.114601e+01	-7.311663e+01
2.900000e+03	cool4	1.167361e+01	4.252743e+01	7.262583e+00
2.900000e+03	cool5	-2.788312e+01	1.455229e+00	-4.976893e+00
2.900000e+03	hot1	4.918478e+02	3.866041e+03	1.034354e+02
2.900000e+03	hot2	9.867391e+02	8.072420e+03	1.806967e+03
2.900000e+03	hot3	2.538795e+03	1.237128e+04	4.798151e+02
3.000000e+03	inlet	0.000000e+00	0.000000e+00	0.000000e+00
3.000000e+03	outlet	0.000000e+00	0.000000e+00	0.000000e+00
3.000000e+03	cool1	-1.437327e+02	-7.177398e+01	-2.785351e+01
3.000000e+03	cool2	-8.303104e+01	-5.206162e+01	-1.833670e+01
3.000000e+03	cool3	-8.088451e+01	3.921793e+01	-8.104703e+01
3.000000e+03	cool4	8.559341e+00	3.813636e+01	6.282553e+00
3.000000e+03	cool5	-3.166789e+01	-1.631245e+00	-6.003848e+00
3.000000e+03	hot1	4.851062e+02	3.826805e+03	1.016304e+02
3.000000e+03	hot2	9.775708e+02	8.030359e+03	1.795059e+03
3.000000e+03	hot3	2.522494e+03	1.232382e+04	4.777509e+02
3.100000e+03	inlet	0.000000e+00	0.000000e+00	0.000000e+00
3.100000e+03	outlet	0.000000e+00	0.000000e+00	0.000000e+00
3.100000e+03	cool1	-1.461943e+02	-7.306461e+01	-2.833869e+01
3.100000e+03	cool2	-8.497356e+01	-5.324842e+01	-1.876197e+01
3.100000e+03	cool3	-8.488572e+01	3.738708e+01	-8.864501e+01
3.100000e+03	cool4	5.559134e+00	3.390052e+01	5.336899e+00
3.100000e+03	cool5	-3.530923e+01	-4.628618e+00	-6.997563e+00
3.100000e+03	hot1	4.785425e+02	3.787350e+03	9.981884e+01
3.100000e+03	hot2	9.685836e+02	7.989054e+03	1.783140e+03
3.100000e+03	hot3	2.506931e+03	1.227538e+04	4.756895e+02
3.200000e+03	inlet	0.000000e+00	0.000000e+00	0.000000e+00
3.200000e+03	outlet	0.000000e+00	0.000000e+00	0.000000e+00
3.200000e+03	cool1	-1.485292e+02	-7.429258e+01	-2.880136e+01
3.200000e+03	cool2	-8.681882e+01	-5.434407e+01	-1.916536e+01
3.200000e+03	cool3	-8.875038e+01	3.564470e+01	-9.592677e+01
3.200000e+03	cool4	2.663922e+00	2.980423e+01	4.423757e+00
3.200000e+03	cool5	-3.898267e+01	-7.527597e+00	-7.958949e+00
3.200000e+03	hot1	4.724482e+02	3.752861e+03	9.821075e+01
3.200000e+03	hot2	9.602930e+02	7.950476e+03	1.772595e+03
3.200000e+03	hot3	2.492129e+03	1.223337e+04	4.738408e+02
3.300000e+03	inlet	0.000000e+00	0.000000e+00	0.000000e+00
3.300000e+03	outlet	0.000000e+00	0.000000e+00	0.000000e+00
3.300000e+03	cool1	-1.507505e+02	-7.545913e+01	-2.924210e+01
3.300000e+03	cool2	-8.857302e+01	-5.538713e+01	-1.954938e+01
3.300000e+03	cool3	-9.247779e+01	3.398537e+01	-1.029130e+02
3.300000e+03	cool4	-1.211449e-01	2.585375e+01	3.541320e+00
3.300000e+03	cool5	-4.269692e+01	-1.033641e+01	-8.886891e+00
3.300000e+03	hot1	4.665140e+02	3.717082e+03	9.655219e+01
3.300000e+03	hot2	9.521820e+02	7.913080e+03	1.761657e+03
3.300000e+03	hot3	2.477663e+03	1.218913e+04	4.719500e+02
3.400000e+03	inlet	0.000000e+00	0.000000e+00	0.000000e+00
3.400000e+03	outlet	0.000000e+00	0.000000e+00	0.000000e+00
3.400000e+03	cool1	-1.528633e+02	-7.656795e+01	-2.966166e+01
3.400000e+03	cool2	-9.024141e+01	-5.637999e+01	-1.991495e+01
3.400000e+03	cool3	-9.606905e+01	3.240626e+01	-1.096092e+02
3.400000e+03	cool4	-2.815103e+00	2.203457e+01	2.690478e+00
3.400000e+03	cool5	-4.623429e+01	-1.304750e+01	-9.781309e+00
3.400000e+03	hot1	4.609169e+02	3.683908e+03	9.503592e+01
3.400000e+03	hot2	9.446702e+02	7.877665e+03	1.751694e+03
3.400000e+03	hot3	2.464065e+03	1.214932e+04	4.702079e+02
3.500000e+03	inlet	0.000000e+00	0.000000e+00	0.000000e+00
3.500000e+03	outlet	0.000000e+00	0.000000e+00	0.000000e+00
3.500000e+03	cool1	-1.548761e+02	-7.762513e+01	-3.006103e+01
3.500000e+03	cool2	-9.182895e+01	-5.732550e+01	-2.026330e+01
3.500000e+03	cool3	-9.953338e+01	3.090194e+01	-1.160303e+02
3.500000e+03	cool4	-5.415990e+00	1.834442e+01	1.869672e+00
3.500000e+03	cool5	-4.963028e+01	-1.566860e+01	-1.064464e+01
3.500000e+03	hot1	4.554587e+02	3.649473e+03	9.345037e+01
3.500000e+03	hot2	9.374372e+02	7.843129e+03	1.741196e+03
3.500000e+03	hot3	2.450642e+03	1.210700e+04	4.683905e+02
3.600000e+03	inlet	0.000000e+00	0.000000e+00	0.000000e+00
3.600000e+03	outlet	0.000000e+00	0.000000e+00	0.000000e+00
3.600000e+03	cool1	-1.567939e+02	-7.863359e+01	-3.044156e+01
3.600000e+03	cool2	-9.334197e+01	-5.822656e+01	-2.059528e+01
3.600000e+03	cool3	-1.028711e+02	2.946802e+01	-1.221924e+02
3.600000e+03	cool4	-7.922505e+00	1.478033e+01	1.077028e+00
3.600000e+03	cool5	-5.292601e+01	-1.820418e+01	-1.147909e+01
3.600000e+03	hot1	4.503510e+02	3.621192e+03	9.211925e+01
3.600000e+03	hot2	9.305770e+02	7.811117e+03	1.732438e+03
3.600000e+03	hot3	2.438189e+03	1.207203e+04	4.668415e+02
3.700000e+03	inlet	0.000000e+00	0.000000e+00	0.000000e+00
3.700000e+03	outlet	0.000000e+00	0.000000e+00	0.000000e+00
3.700000e+03	cool1	-1.586223e+02	-7.959570e+01	-3.080436e+01
3.700000e+03	cool2	-9.478479e+01	-5.908662e+01	-2.091182e+01
3.700000e+03	cool3	-1.060892e+02	2.810090e+01	-1.281071e+02
3.700000e+03	cool4	-1.034259e+01	1.186422e+01	3.116063e-01
3.700000e+03	cool5	-5.610427e+01	-2.065636e+01	-1.228547e+01
3.700000e+03	hot1	4.454181e+02	3.591303e+03	9.073998e+01
3.700000e+03	hot2	9.240261e+02	7.780017e+03	1.723318e+03
3.700000e+03	hot3	2.426108e+03	1.203545e+04	4.652488e+02
3.800000e+03	inlet	0.000000e+00	0.000000e+00	0.000000e+00
3.800000e+03	outlet	0.000000e+00	0.000000e+00	0.000000e+00
3.800000e+03	cool1	-1.603671e+02	-8.050500e+01	-3.115021e+01
3.800000e+03	cool2	-9.616043e+01	-5.990391e+01	-2.121376e+01
3.800000e+03	cool3	-1.091933e+02	2.679760e+01	-1.337788e+02
3.800000e+03	cool4	-1.268173e+01	9.710102e+00	-4.253223e-01
3.800000e+03	cool5	-5.929848e+01	-2.301121e+01	-1.305993e+01
3.800000e+03	hot1	4.390866e+02	3.562444e+03	8.938600e+01
3.800000e+03	hot2	9.177877e+02	7.750010e+03	1.714318e+03
3.800000e+03	hot3	2.415111e+03	1.199944e+04	4.636941e+02
3.900000e+03	inlet	0.000000e+00	0.000000e+00	0.000000e+00
3.900000e+03	outlet	0.000000e+00	0.000000e+00	0.000000e+00
3.900000e+03	cool1	-1.620337e+02	-8.134552e+01	-3.147991e+01
3.900000e+03	cool2	-9.747399e+01	-6.068354e+01	-2.150193e+01
3.900000e+03	cool3	-1.121842e+02	2.555388e+01	-1.392275e+02
3.900000e+03	cool4	-1.493487e+01	7.618572e+00	-1.137838e+00
3.900000e+03	cool5	-6.301357e+01	-2.529840e+01	-1.381094e+01
3.900000e+03	hot1	4.331569e+02	3.536103e+03	8.815829e+01
3.900000e+03	hot2	9.118529e+02	7.721747e+03	1.706223e+03
3.900000e+03	hot3	2.403750e+03	1.196713e+04	4.622731e+02
4.000000e+03	inlet	0.000000e+00	0.000000e+00	0.000000e+00
4.000000e+03	outlet	0.000000e+00	0.000000e+00	0.000000e+00
4.000000e+03	cool1	-1.636216e+02	-8.209392e+01	-3.179434e+01
4.000000e+03	cool2	-9.873247e+01	-6.142585e+01	-2.177703e+01
4.000000e+03	cool3	-1.150579e+02	2.436824e+01	-1.444610e+02
4.000000e+03	cool4	-1.710917e+01	5.596474e+00	-1.826426e+00
4.000000e+03	cool5	-6.660422e+01	-2.751299e+01	-1.453735e+01
4.000000e+03	hot1	4.274178e+02	3.510403e+03	8.695229e+01
4.000000e+03	hot2	9.061177e+02	7.694394e+03	1.698228e+03
4.000000e+03	hot3	2.393420e+03	1.193511e+04	4.608725e+02
4.100000e+03	inlet	0.000000e+00	0.000000e+00	0.000000e+00
4.100000e+03	outlet	0.000000e+00	0.000000e+00	0.000000e+00
4.100000e+03	cool1	-1.651386e+02	-8.280809e+01	-3.209474e+01
4.100000e+03	cool2	-9.997935e+01	-6.213515e+01	-2.203958e+01
4.100000e+03	cool3	-1.178443e+02	2.323399e+01	-1.494908e+02
4.100000e+03	cool4	-1.920753e+01	3.639788e+00	-2.491918e+00
4.100000e+03	cool5	-7.007436e+01	-2.965887e+01	-1.523965e+01
4.100000e+03	hot1	4.218346e+02	3.484443e+03	8.575553e+01
4.100000e+03	hot2	9.005969e+02	7.667995e+03	1.690292e+03
4.100000e+03	hot3	2.383150e+03	1.190324e+04	4.594878e+02
4.200000e+03	inlet	0.000000e+00	0.000000e+00	0.000000e+00
4.200000e+03	outlet	0.000000e+00	0.000000e+00	0.000000e+00
4.200000e+03	cool1	-1.665900e+02	-8.349037e+01	-3.238170e+01
4.200000e+03	cool2	-1.011703e+02	-6.281242e+01	-2.229028e+01
4.200000e+03	cool3	-1.205262e+02	2.215017e+01	-1.543155e+02
4.200000e+03	cool4	-2.122547e+01	1.752419e+00	-3.132892e+00
4.200000e+03	cool5	-7.342357e+01	-3.172636e+01	-1.591675e+01
4.200000e+03	hot1	4.166109e+02	3.460408e+03	8.464526e+01
4.200000e+03	hot2	8.953479e+02	7.642992e+03	1.682939e+03
4.200000e+03	hot3	2.373321e+03	1.187384e+04	4.581962e+02
4.300000e+03	inlet	0.000000e+00	0.000000e+00	0.000000e+00
4.300000e+03	outlet	0.000000e+00	0.000000e+00	0.000000e+00
4.300000e+03	cool1	-1.679752e+02	-8.414082e+01	-3.265566e+01
4.300000e+03	cool2	-1.023083e+02	-6.345871e+01	-2.252980e+01
4.300000e+03	cool3	-1.231163e+02	2.111449e+01	-1.589571e+02
4.300000e+03	cool4	-2.316320e+01	-7.525571e-02	-3.752802e+00
4.300000e+03	cool5	-7.665472e+01	-3.373768e+01	-1.657207e+01
4.300000e+03	hot1	4.117595e+02	3.440755e+03	8.366956e+01
4.300000e+03	hot2	8.904649e+02	7.619473e+03	1.676476e+03
4.300000e+03	hot3	2.364425e+03	1.184825e+04	4.570454e+02
4.400000e+03	inlet	0.000000e+00	0.000000e+00	0.000000e+00
4.400000e+03	outlet	0.000000e+00	0.000000e+00	0.000000e+00
4.400000e+03	cool1	-1.692991e+02	-8.476251e+01	-3.291769e+01
4.400000e+03	cool2	-1.033972e+02	-6.407633e+01	-2.275846e+01
4.400000e+03	cool3	-1.256111e+02	2.012443e+01	-1.634081e+02
4.400000e+03	cool4	-2.556185e+01	-1.834697e+00	-4.349786e+00
4.400000e+03	cool5	-7.978226e+01	-3.555675e+01	-1.720361e+01
4.400000e+03	hot1	4.068074e+02	3.417256e+03	8.258521e+01
4.400000e+03	hot2	8.856436e+02	7.596270e+03	1.669255e+03
4.400000e+03	hot3	2.355374e+03	1.181923e+04	4.557869e+02
4.500000e+03	inlet	0.000000e+00	0.000000e+00	0.000000e+00
4.500000e+03	outlet	0.000000e+00	0.000000e+00	0.000000e+00
4.500000e+03	cool1	-1.705647e+02	-8.535588e+01	-3.316865e+01
4.500000e+03	cool2	-1.044359e+02	-6.466667e+01	-2.297702e+01
4.500000e+03	cool3	-1.280181e+02	1.917770e+01	-1.676882e+02
4.500000e+03	cool4	-2.832962e+01	-3.534227e+00	-4.926510e+00
4.500000e+03	cool5	-8.280258e+01	-3.707338e+01	-1.781403e+01
4.500000e+03	hot1	4.021846e+02	3.396320e+03	8.160916e+01
4.500000e+03	hot2	8.811873e+02	7.574276e+03	1.662784e+03
4.500000e+03	hot3	2.346703e+03	1.179344e+04	4.546472e+02
4.600000e+03	inlet	0.000000e+00	0.000000e+00	0.000000e+00
4.600000e+03	outlet	0.000000e+00	0.000000e+00	0.000000e+00
4.600000e+03	cool1	-1.717747e+02	-8.592420e+01	-3.340779e+01
4.600000e+03	cool2	-1.054302e+02	-6.523102e+01	-2.318609e+01
4.600000e+03	cool3	-1.303372e+02	1.827237e+01	-1.717953e+02
4.600000e+03	cool4	-3.099730e+01	-5.173309e+00	-5.482451e+00
4.600000e+03	cool5	-8.572122e+01	-3.853464e+01	-1.840287e+01
4.600000e+03	hot1	3.977572e+02	3.376657e+03	8.066597e+01
4.600000e+03	hot2	8.767216e+02	7.553150e+03	1.656508e+03
4.600000e+03	hot3	2.338420e+03	1.176834e+04	4.535421e+02
4.700000e+03	inlet	0.000000e+00	0.000000e+00	0.000000e+00
4.700000e+03	outlet	0.000000e+00	0.000000e+00	0.000000e+00
4.700000e+03	cool1	-1.729323e+02	-8.646635e+01	-3.363643e+01
4.700000e+03	cool2	-1.063811e+02	-6.577067e+01	-2.338607e+01
4.700000e+03	cool3	-1.325741e+02	1.740616e+01	-1.757444e+02
4.700000e+03	cool4	-3.357528e+01	-6.757211e+00	-6.019670e+00
4.700000e+03	cool5	-8.854508e+01	-3.994756e+01	-1.897233e+01
4.700000e+03	hot1	3.934151e+02	3.356404e+03	7.972709e+01
4.700000e+03	hot2	8.722346e+02	7.532668e+03	1.650274e+03
4.700000e+03	hot3	2.329778e+03	1.174328e+04	4.524491e+02
4.800000e+03	inlet	0.000000e+00	0.000000e+00	0.000000e+00
4.800000e+03	outlet	0.000000e+00	0.000000e+00	0.000000e+00
4.800000e+03	cool1	-1.740402e+02	-8.698480e+01	-3.385529e+01
4.800000e+03	cool2	-1.072905e+02	-6.628650e+01	-2.357751e+01
4.800000e+03	cool3	-1.347312e+02	1.657700e+01	-1.795389e+02
4.800000e+03	cool4	-3.606142e+01	-8.284458e+00	-6.537528e+00
4.800000e+03	cool5	-9.126892e+01	-4.130796e+01	-1.952137e+01
4.800000e+03	hot1	3.894182e+02	3.338837e+03	7.888854e+01
4.800000e+03	hot2	8.681115e+02	7.513492e+03	1.644692e+03
4.800000e+03	hot3	2.322195e+03	1.172103e+04	4.514604e+02
4.900000e+03	inlet	0.000000e+00	0.000000e+00	0.000000e+00
4.900000e+03	outlet	0.000000e+00	0.000000e+00	0.000000e+00
4.900000e+03	cool1	-1.751008e+02	-8.748154e+01	-3.406441e+01
4.900000e+03	cool2	-1.081607e+02	-6.678005e+01	-2.376052e+01
4.900000e+03	cool3	-1.368108e+02	1.578363e+01	-1.831841e+02
4.900000e+03	cool4	-3.845823e+01	-9.758375e+00	-7.037243e+00
4.900000e+03	cool5	-9.389903e+01	-4.262038e+01	-2.005176e+01
4.900000e+03	hot1	3.855823e+02	3.321945e+03	7.807907e+01
4.900000e+03	hot2	8.642542e+02	7.494932e+03	1.639314e+03
4.900000e+03	hot3	2.314902e+03	1.169970e+04	4.505120e+02
5.000000e+03	inlet	0.000000e+00	0.000000e+00	0.000000e+00
5.000000e+03	outlet	0.000000e+00	0.000000e+00	0.000000e+00
5.000000e+03	cool1	-1.761171e+02	-8.795664e+01	-3.426447e+01
5.000000e+03	cool2	-1.089937e+02	-6.725231e+01	-2.393566e+01
5.000000e+03	cool3	-1.388148e+02	1.502409e+01	-1.866868e+02
5.000000e+03	cool4	-4.076909e+01	-1.118033e+01	-7.518965e+00
5.000000e+03	cool5	-9.644168e+01	-4.388593e+01	-2.056297e+01
5.000000e+03	hot1	3.817555e+02	3.304576e+03	7.724849e+01
5.000000e+03	hot2	8.604274e+02	7.476865e+03	1.633767e+03
5.000000e+03	hot3	2.307836e+03	1.167744e+04	4.495404e+02
5.100000e+03	inlet	0.000000e+00	0.000000e+00	0.000000e+00
5.100000e+03	outlet	0.000000e+00	0.000000e+00	0.000000e+00
5.100000e+03	cool1	-1.770922e+02	-8.841137e+01	-3.445606e+01
5.100000e+03	cool2	-1.097911e+02	-6.770425e+01	-2.410325e+01
5.100000e+03	cool3	-1.407502e+02	1.429682e+01	-1.900561e+02
5.100000e+03	cool4	-4.300556e+01	-1.255462e+01	-7.984670e+00
5.100000e+03	cool5	-9.889858e+01	-4.511021e+01	-2.105768e+01
5.100000e+03	hot1	3.783131e+02	3.289534e+03	7.653972e+01
5.100000e+03	hot2	8.567981e+02	7.460047e+03	1.629079e+03