# Probe 0 (0.0015 0.0015 0)
# Probe 1 (0.0015 0.0015 0.002)
# Probe 2 (0.0015 0.0015 0.004)
# Probe 3 (0.0015 0.0015 0.006)
# Probe 4 (0.0015 0.0015 0.008)
# Probe 5 (0.0015 0.0015 0.01)
# Probe 6 (0.0015 0.0015 0.012)
# Probe 7 (0.0015 0.0015 0.014)
# Probe 8 (0.0015 0.0015 0.016)
# Probe 9 (0.0015 0.0015 0.018)
# Probe 10 (0.0015 0.0015 0.02)
# Time        0             1             2             3             4             5             6             7             8             9             10           
50            132495        60907.4       19792.5       7576.85       3075.17       1724.88       1310.19       1332.01       1765.83       3233.42       7931.13      
100           156631        91733.5       34695.7       13349.7       4969.37       2365.59       1501.16       1440.67       1910.73       3521.21       8246.81      
150           169308        114677        53367.1       21855         7934.3        3391.09       1805.11       1595.66       2083.32       3844.77       8593.58      
200           176972        129546        71343.2       32722.5       12191.4       4920.69       2263.48       1812.93       2286.52       4192.89       8941.41      
250           182191        139802        85967.7       44749.8       17868.1       7092.26       2929.67       2113.56       2525.85       4558.03       9272.51      
300           186032        147398        97439.7       56388.3       24850.7       10042.7       3872.67       2526.69       2810.76       4937.09       9580.37      
350           189007        153307        106604        66735.1       32714.3       13870         5175.74       3089.14       3154.51       5330.76       9865.51      
400           191401        158074        114120        75672.4       40826.7       18569.1       6931.45       3847.96       3575.96       5743.64       10132.3      
450           193383        162030        120427        83386.1       48646.6       23987.4       9226.52       4856.78       4098.46       6183.82       10387.5      
500           195063        165388        125820        90100.8       55909.7       29852.3       12121.8       6176.44       4753.7        6664.49       10639.9      
550           196511        168287        130505        96009.1       62559         35856         15625.6       7869.81       5578.34       7202.63       10899.4      
600           197780        170829        134633        101264        68629.4       41758.5       19670.2       9991.73       6616.67       7820.72       11177.8      
650           198906        173086        138312        105984        74184.2       47423.8       24120.3       12577.1       7916.82       8545.95       11487.8      
700           199916        175113        141627        110262        79290         52799.6       28811.1       15628.3       9526.36       9409.32       11844        
750           200831        176951        144642        114172        84008.5       57881.4       33596.3       19107.9       11484.3       10443.2       12261.1      
800           201668        178632        147406        117773        88395.1       62688         38373.5       22940.1       13809.7       11677         12753.1      
850           202439        180183        149961        121116        92497.9       67245.9       43081.5       27019.3       16490.1       13131.3       13331.6      
900           203156        181625        152341        124240        96356.7       71579.6       47680.7       31230.7       19474.9       14809.6       14002        
950           203826        182973        154572        127175        100001        75705.5       52140.5       35465.7       22681.1       16694.7       14762.4      
1000          204456        184241        156671        129943        103450        79631         56432.7       39633.9       26007.7       18747         15601.7      
1050          205050        185437        158652        132557        106713        83356         60531.4       43666         29353.4       20909.2       16500.6      
1100          205610        186564        160520        135023        109794        86875.8       64413.9       47511.3       32630.3       23114.6       17433.5      
1150          206138        187627        162280        137345        112691        90183.6       68061.8       51134.3       35769.9       25297.3       18372.5      
1200          206633        188624        163931        139521        115402        93272.8       71461.7       54511.3       38723.8       27399.9       19290.7      
1250          207097        189556        165472        141549        117924        96138.7       74605.4       57628.1       41461.3       29379.2       20165.8      
1300          207527        190422        166901        143427        120253        98778.7       77490.1       60479.6       43967.3       31207.6       20981.5      
1350          207925        191221        168220        145157        122392        101194        80116.3       63065.8       46235.6       32870.1       21728.2      
1400          208290        191955        169429        146739        124343        103388        82490.8       65394.2       48271         34363.4       22401.6      
1450          208622        192624        170529        148176        126108        105369        84624         67476.6       50084.6       35692.3       23002        
1500          208924        193230        171524        149473        127699        107146        86528.5       69328.1       51689.4       36865.8       23532.8      
1550          209196        193775        172419        150638        129122        108731        88219.9       70965.5       53102.5       37896.2       23999        
1600          209439        194263        173219        151678        130389        110138        89714.8       72407.3       54341.9       38797.2       24406.3      
1650          209656        194698        173930        152600        131511        111381        91030.8       73672.2       55424.9       39582.1       24761        
1700          209848        195083        174560        153416        132502        112474        92184.9       74778.1       56368.4       40264.1       25068.9      
1750          210018        195423        175116        154135        133372        113433        93193.9       75742.3       57188.7       40855.5       25335.7      
1800          210167        195722        175603        154765        134134        114272        94073.6       76581         57900.3       41367.4       25566.4      
1850          210297        195984        176030        155316        134799        115002        94838.8       77309.1       58516.7       41810         25765.8      
1900          210411        196212        176403        155796        135379        115638        95503.1       77940.1       59049.8       42192.2       25937.8      
1950          210511        196411        176727        156214        135882        116190        96079.2       78486.3       59510.7       42521.9       26086.1      
2000          210597        196584        177008        156577        136319        116668        96577.3       78958.2       59908.3       42806.2       26214        
2050          210672        196734        177253        156891        136697        117081        97007.8       79365.6       60251.1       43051.1       26324        
2100          210737        196864        177464        157163        137025        117439        97379.5       79717         60546.4       43261.9       26418.8      
2150          210793        196977        177647        157399        137307        117747        97700         80019.9       60800.8       43443.3       26500.3      
2200          210841        197074        177805        157602        137551        118014        97976.3       80280.8       61019.7       43599.4       26570.4      
2250          210883        197157        177941        157777        137761        118243        98214.3       80505.3       61208.1       43733.5       26630.6      
2300          210919        197230        178059        157928        137942        118440        98419.1       80698.5       61370         43848.9       26682.4      
2350          210950        197292        178160        158058        138098        118610        98595.2       80864.7       61509.1       43948         26726.9      
2400          210977        197345        178247        158169        138232        118756        98746.6       81007.3       61628.8       44033         26765.1      
2450          211000        197391        178321        158265        138347        118882        98876.7       81129.8       61731.5       44106         26797.9      
2500          211020        197431        178386        158348        138447        118990        98988.3       81235.1       61819.5       44168.7       26826        
2550          211036        197465        178441        158419        138531        119082        99083.9       81325         61895         44222.4       26850.1      
2600          211051        197493        178487        158478        138602        119160        99164.3       81401         61958.4       44267.6       26870.4      
2650          211063        197517        178527        158529        138664        119227        99234         81466.8       62013.5       44307.1       26888.1      
2700          211074        197539        178562        158574        138718        119286        99295.1       81524.3       62061.8       44341.3       26903.5      
2750          211083        197557        178591        158612        138764        119335        99346.6       81572.8       62102.3       44370.2       26916.3      
2800          211090        197573        178617        158645        138802        119378        99390.5       81614.1       62137         44394.9       26927.4      
2850          211097        197586        178637        158671        138834        119412        99426.5       81648         62165.5       44415         26936.5      
2900          211103        197598        178657        158696        138864        119445        99460.2       81679.8       62192.1       44434         26945        
2950          211108        197607        178672        158716        138888        119471        99487.2       81705.3       62213.4       44449.1       26951.8      
3000          211112        197616        178686        158734        138910        119494        99511.4       81728.1       62232.5       44462.7       26957.9      
3050          211115        197622        178697        158748        138927        119513        99530.6       81746.1       62247.7       44473.4       26962.9      
3100          211118        197628        178707        158761        138941        119529        99547.3       81761.9       62260.8       44482.9       26967        
3150          211121        197633        178715        158771        138954        119543        99561.7       81775.5       62272.3       44491         26970.7      
3200          211123        197638        178722        158780        138965        119555        99573.9       81787.1       62281.8       44497.9       26973.8      
3250          211125        197642        178729        158789        138976        119566        99586.1       81798.4       62291.5       44504.7       26976.8      
3300          211127        197645        178734        158795        138983        119575        99594.6       81806.6       62298.2       44509.4       26978.9      
3350          211128        197648        178739        158802        138991        119583        99602.9       81814.4       62304.7       44514.1       26981        
3400          211129        197650        178743        158806        138997        119589        99609.6       81820.7       62310         44517.9       26982.8      
3450          211130        197652        178746        158810        139001        119594        99615.1       81825.9       62314.4       44521.1       26984.1      
3500          211131        197654        178749        158814        139006        119599        99620.4       81830.9       62318.7       44524.1       26985.6      
3550          211132        197655        178750        158816        139009        119602        99623.4       81833.8       62321.1       44525.9       26986.3      
3600          211132        197656        178751        158818        139010        119604        99625.3       81835.6       62322.7       44527         26986.8      
3650          211133        197657        178753        158821        139014        119608        99629.1       81839.3       62325.8       44529.3       26987.8      
3700          211133        197658        178754        158822        139015        119610        99631.1       81841.2       62327.5       44530.5       26988.4      
3750          211133        197658        178755        158823        139017        119611        99632.7       81842.7       62328.8       44531.5       26988.8      
3800          211133        197658        178755        158823        139017        119611        99632.7       81842.7       62328.8       44531.5       26988.8      
3850          211133        197658        178755        158823        139017        119611        99632.7       81842.7       62328.8       44531.5       26988.8      
3900          211133        197658        178755        158823        139017        119611        99632.7       81842.7       62328.8       44531.5       26988.8      
3950          211133        197658        178755        158823        139017        119611        99632.7       81842.7       62328.8       44531.5       26988.8      
4000          211133        197658        178755        158823        139017        119611        99632.7       81842.7       62328.8       44531.5       26988.8      
4050          211133        197658        178755        158823        139017        119611        99632.7       81842.7       62328.8       44531.5       26988.8      
4100          211133        197658        178755        158823        139017        119611        99632.7       81842.7       62328.8       44531.5       26988.8      
4150          211133        197658        178755        158823        139017        119611        99632.7       81842.7       62328.8       44531.5       26988.8      
4200          211133        197658        178755        158823        139017        119611        99632.7       81842.7       62328.8       44531.5       26988.8      
4250          211133        197658        178755        158823        139017        119611        99632.7       81842.7       62328.8       44531.5       26988.8      
4300          211133        197658        178755        158823        139017        119611        99632.7       81842.7       62328.8       44531.5       26988.8      
4350          211133        197658        178755        158823        139017        119611        99632.7       81842.7       62328.8       44531.5       26988.8      
4400          211133        197658        178755        158823        139017        119611        99632.7       81842.7       62328.8       44531.5       26988.8      
4450          211133        197658        178755        158823        139017        119611        99632.7       81842.7       62328.8       44531.5       26988.8      
4500          211133        197658        178755        158823        139017        119611        99632.7       81842.7       62328.8       44531.5       26988.8      
4550          211133        197658        178755        158823        139017        119611        99632.7       81842.7       62328.8       44531.5       26988.8      
4600          211133        197658        178755        158823        139017        119611        99632.7       81842.7       62328.8       44531.5       26988.8      
4650          211133        197658        178755        158823        139017        119611        99632.7       81842.7       62328.8       44531.5       26988.8      
4700          211133        197658        178755        158823        139017        119611        99632.7       81842.7       62328.8       44531.5       26988.8      
4750          211133        197658        178755        158823        139017        119611        99632.7       81842.7       62328.8       44531.5       26988.8      
4800          211133        197658        178755        158823        139017        119611        99632.7       81842.7       62328.8       44531.5       26988.8      
4850          211133        197658        178755        158823        139017        119611        99632.7       81842.7       62328.8       44531.5       26988.8      
4900          211133        197658        178755        158823        139017        119611        99632.7       81842.7       62328.8       44531.5       26988.8      
4950          211133        197658        178755        158823        139017        119611        99632.7       81842.7       62328.8       44531.5       26988.8      
5000          211133        197658        178755        158823        139017        119611        99632.7       81842.7       62328.8       44531.5       26988.8      
