# Probe 0 (0.0015 0.0015 0)
# Probe 1 (0.0015 0.0015 0.002)
# Probe 2 (0.0015 0.0015 0.004)
# Probe 3 (0.0015 0.0015 0.006)
# Probe 4 (0.0015 0.0015 0.008)
# Probe 5 (0.0015 0.0015 0.01)
# Probe 6 (0.0015 0.0015 0.012)
# Probe 7 (0.0015 0.0015 0.014)
# Probe 8 (0.0015 0.0015 0.016)
# Probe 9 (0.0015 0.0015 0.018)
# Probe 10 (0.0015 0.0015 0.02)
# Time        0             1             2             3             4             5             6             7             8             9             10           
50            0.000778844   0.000469949   0.000382769   0.000541423   0.00055103    0.000991308   0.000474139   0.000526314   0.000565863   0.000368878   0.000572163  
100           0.000778844   0.000469949   0.000382769   0.000541423   0.00055103    0.000991308   0.000474139   0.000526314   0.000565863   0.000368878   0.000572163  
150           0.000778844   0.000469949   0.000382769   0.000541423   0.00055103    0.000991308   0.000474139   0.000526314   0.000565863   0.000368878   0.000572163  
200           0.000778844   0.000469949   0.000382769   0.000541423   0.00055103    0.000991308   0.000474139   0.000526314   0.000565863   0.000368878   0.000572163  
250           0.000778844   0.000469949   0.000382769   0.000541423   0.00055103    0.000991308   0.000474139   0.000526314   0.000565863   0.000368878   0.000572163  
300           0.000778844   0.000469949   0.000382769   0.000541423   0.00055103    0.000991308   0.000474139   0.000526314   0.000565863   0.000368878   0.000572163  
350           0.000778844   0.000469949   0.000382769   0.000541423   0.00055103    0.000991308   0.000474139   0.000526314   0.000565863   0.000368878   0.000572163  
400           0.000778844   0.000469949   0.000382769   0.000541423   0.00055103    0.000991308   0.000474139   0.000526314   0.000565863   0.000368878   0.000572163  
450           0.000778844   0.000469949   0.000382769   0.000541423   0.00055103    0.000991308   0.000474139   0.000526314   0.000565863   0.000368878   0.000572163  
500           0.000778844   0.000469949   0.000382769   0.000541423   0.00055103    0.000991308   0.000474139   0.000526314   0.000565863   0.000368878   0.000572163  
550           0.000778844   0.000469949   0.000382769   0.000541423   0.00055103    0.000991308   0.000474139   0.000526314   0.000565863   0.000368878   0.000572163  
600           0.000778844   0.000469949   0.000382769   0.000541423   0.00055103    0.000991308   0.000474139   0.000526314   0.000565863   0.000368878   0.000572163  
650           0.000778844   0.000469949   0.000382769   0.000541423   0.00055103    0.000991308   0.000474139   0.000526314   0.000565863   0.000368878   0.000572163  
700           0.000778844   0.000469949   0.000382769   0.000541423   0.00055103    0.000991308   0.000474139   0.000526314   0.000565863   0.000368878   0.000572163  
750           0.000778844   0.000469949   0.000382769   0.000541423   0.00055103    0.000991308   0.000474139   0.000526314   0.000565863   0.000368878   0.000572163  
800           0.000778844   0.000469949   0.000382769   0.000541423   0.00055103    0.000991308   0.000474139   0.000526314   0.000565863   0.000368878   0.000572163  
850           0.000778844   0.000469949   0.000382769   0.000541423   0.00055103    0.000991308   0.000474139   0.000526314   0.000565863   0.000368878   0.000572163  
900           0.000778844   0.000469949   0.000382769   0.000541423   0.00055103    0.000991308   0.000474139   0.000526314   0.000565863   0.000368878   0.000572163  
950           0.000778844   0.000469949   0.000382769   0.000541423   0.00055103    0.000991308   0.000474139   0.000526314   0.000565863   0.000368878   0.000572163  
1000          0.000778844   0.000469949   0.000382769   0.000541423   0.00055103    0.000991308   0.000474139   0.000526314   0.000565863   0.000368878   0.000572163  
1050          0.000778844   0.000469949   0.000382769   0.000541423   0.00055103    0.000991308   0.000474139   0.000526314   0.000565863   0.000368878   0.000572163  
1100          0.000778844   0.000469949   0.000382769   0.000541423   0.00055103    0.000991308   0.000474139   0.000526314   0.000565863   0.000368878   0.000572163  
1150          0.000778844   0.000469949   0.000382769   0.000541423   0.00055103    0.000991308   0.000474139   0.000526314   0.000565863   0.000368878   0.000572163  
1200          0.000778844   0.000469949   0.000382769   0.000541423   0.00055103    0.000991308   0.000474139   0.000526314   0.000565863   0.000368878   0.000572163  
1250          0.000778844   0.000469949   0.000382769   0.000541423   0.00055103    0.000991308   0.000474139   0.000526314   0.000565863   0.000368878   0.000572163  
1300          0.000778844   0.000469949   0.000382769   0.000541423   0.00055103    0.000991308   0.000474139   0.000526314   0.000565863   0.000368878   0.000572163  
1350          0.000778844   0.000469949   0.000382769   0.000541423   0.00055103    0.000991308   0.000474139   0.000526314   0.000565863   0.000368878   0.000572163  
1400          0.000778844   0.000469949   0.000382769   0.000541423   0.00055103    0.000991308   0.000474139   0.000526314   0.000565863   0.000368878   0.000572163  
1450          0.000778844   0.000469949   0.000382769   0.000541423   0.00055103    0.000991308   0.000474139   0.000526314   0.000565863   0.000368878   0.000572163  
1500          0.000778844   0.000469949   0.000382769   0.000541423   0.00055103    0.000991308   0.000474139   0.000526314   0.000565863   0.000368878   0.000572163  
1550          0.000778844   0.000469949   0.000382769   0.000541423   0.00055103    0.000991308   0.000474139   0.000526314   0.000565863   0.000368878   0.000572163  
1600          0.000778844   0.000469949   0.000382769   0.000541423   0.00055103    0.000991308   0.000474139   0.000526314   0.000565863   0.000368878   0.000572163  
1650          0.000778844   0.000469949   0.000382769   0.000541423   0.00055103    0.000991308   0.000474139   0.000526314   0.000565863   0.000368878   0.000572163  
1700          0.000778844   0.000469949   0.000382769   0.000541423   0.00055103    0.000991308   0.000474139   0.000526314   0.000565863   0.000368878   0.000572163  
1750          0.000778844   0.000469949   0.000382769   0.000541423   0.00055103    0.000991308   0.000474139   0.000526314   0.000565863   0.000368878   0.000572163  
1800          0.000778844   0.000469949   0.000382769   0.000541423   0.00055103    0.000991308   0.000474139   0.000526314   0.000565863   0.000368878   0.000572163  
1850          0.000778844   0.000469949   0.000382769   0.000541423   0.00055103    0.000991308   0.000474139   0.000526314   0.000565863   0.000368878   0.000572163  
1900          0.000778844   0.000469949   0.000382769   0.000541423   0.00055103    0.000991308   0.000474139   0.000526314   0.000565863   0.000368878   0.000572163  
1950          0.000778844   0.000469949   0.000382769   0.000541423   0.00055103    0.000991308   0.000474139   0.000526314   0.000565863   0.000368878   0.000572163  
2000          0.000778844   0.000469949   0.000382769   0.000541423   0.00055103    0.000991308   0.000474139   0.000526314   0.000565863   0.000368878   0.000572163  
2050          0.000778844   0.000469949   0.000382769   0.000541423   0.00055103    0.000991308   0.000474139   0.000526314   0.000565863   0.000368878   0.000572163  
2100          0.000778844   0.000469949   0.000382769   0.000541423   0.00055103    0.000991308   0.000474139   0.000526314   0.000565863   0.000368878   0.000572163  
2150          0.000778844   0.000469949   0.000382769   0.000541423   0.00055103    0.000991308   0.000474139   0.000526314   0.000565863   0.000368878   0.000572163  
2200          0.000778844   0.000469949   0.000382769   0.000541423   0.00055103    0.000991308   0.000474139   0.000526314   0.000565863   0.000368878   0.000572163  
2250          0.000778844   0.000469949   0.000382769   0.000541423   0.00055103    0.000991308   0.000474139   0.000526314   0.000565863   0.000368878   0.000572163  
2300          0.000778844   0.000469949   0.000382769   0.000541423   0.00055103    0.000991308   0.000474139   0.000526314   0.000565863   0.000368878   0.000572163  
2350          0.000778844   0.000469949   0.000382769   0.000541423   0.00055103    0.000991308   0.000474139   0.000526314   0.000565863   0.000368878   0.000572163  
2400          0.000778844   0.000469949   0.000382769   0.000541423   0.00055103    0.000991308   0.000474139   0.000526314   0.000565863   0.000368878   0.000572163  
2450          0.000778844   0.000469949   0.000382769   0.000541423   0.00055103    0.000991308   0.000474139   0.000526314   0.000565863   0.000368878   0.000572163  
2500          0.000778844   0.000469949   0.000382769   0.000541423   0.00055103    0.000991308   0.000474139   0.000526314   0.000565863   0.000368878   0.000572163  
2550          0.000778844   0.000469949   0.000382769   0.000541423   0.00055103    0.000991308   0.000474139   0.000526314   0.000565863   0.000368878   0.000572163  
2600          0.000778844   0.000469949   0.000382769   0.000541423   0.00055103    0.000991308   0.000474139   0.000526314   0.000565863   0.000368878   0.000572163  
2650          0.000778844   0.000469949   0.000382769   0.000541423   0.00055103    0.000991308   0.000474139   0.000526314   0.000565863   0.000368878   0.000572163  
2700          0.000778844   0.000469949   0.000382769   0.000541423   0.00055103    0.000991308   0.000474139   0.000526314   0.000565863   0.000368878   0.000572163  
2750          0.000778844   0.000469949   0.000382769   0.000541423   0.00055103    0.000991308   0.000474139   0.000526314   0.000565863   0.000368878   0.000572163  
2800          0.000778844   0.000469949   0.000382769   0.000541423   0.00055103    0.000991308   0.000474139   0.000526314   0.000565863   0.000368878   0.000572163  
2850          0.000778844   0.000469949   0.000382769   0.000541423   0.00055103    0.000991308   0.000474139   0.000526314   0.000565863   0.000368878   0.000572163  
2900          0.000778844   0.000469949   0.000382769   0.000541423   0.00055103    0.000991308   0.000474139   0.000526314   0.000565863   0.000368878   0.000572163  
2950          0.000778844   0.000469949   0.000382769   0.000541423   0.00055103    0.000991308   0.000474139   0.000526314   0.000565863   0.000368878   0.000572163  
3000          0.000778844   0.000469949   0.000382769   0.000541423   0.00055103    0.000991308   0.000474139   0.000526314   0.000565863   0.000368878   0.000572163  
3050          0.000778844   0.000469949   0.000382769   0.000541423   0.00055103    0.000991308   0.000474139   0.000526314   0.000565863   0.000368878   0.000572163  
3100          0.000778844   0.000469949   0.000382769   0.000541423   0.00055103    0.000991308   0.000474139   0.000526314   0.000565863   0.000368878   0.000572163  
3150          0.000778844   0.000469949   0.000382769   0.000541423   0.00055103    0.000991308   0.000474139   0.000526314   0.000565863   0.000368878   0.000572163  
3200          0.000778844   0.000469949   0.000382769   0.000541423   0.00055103    0.000991308   0.000474139   0.000526314   0.000565863   0.000368878   0.000572163  
3250          0.000778844   0.000469949   0.000382769   0.000541423   0.00055103    0.000991308   0.000474139   0.000526314   0.000565863   0.000368878   0.000572163  
3300          0.000778844   0.000469949   0.000382769   0.000541423   0.00055103    0.000991308   0.000474139   0.000526314   0.000565863   0.000368878   0.000572163  
3350          0.000778844   0.000469949   0.000382769   0.000541423   0.00055103    0.000991308   0.000474139   0.000526314   0.000565863   0.000368878   0.000572163  
3400          0.000778844   0.000469949   0.000382769   0.000541423   0.00055103    0.000991308   0.000474139   0.000526314   0.000565863   0.000368878   0.000572163  
3450          0.000778844   0.000469949   0.000382769   0.000541423   0.00055103    0.000991308   0.000474139   0.000526314   0.000565863   0.000368878   0.000572163  
3500          0.000778844   0.000469949   0.000382769   0.000541423   0.00055103    0.000991308   0.000474139   0.000526314   0.000565863   0.000368878   0.000572163  
3550          0.000778844   0.000469949   0.000382769   0.000541423   0.00055103    0.000991308   0.000474139   0.000526314   0.000565863   0.000368878   0.000572163  
3600          0.000778844   0.000469949   0.000382769   0.000541423   0.00055103    0.000991308   0.000474139   0.000526314   0.000565863   0.000368878   0.000572163  
3650          0.000778844   0.000469949   0.000382769   0.000541423   0.00055103    0.000991308   0.000474139   0.000526314   0.000565863   0.000368878   0.000572163  
3700          0.000778844   0.000469949   0.000382769   0.000541423   0.00055103    0.000991308   0.000474139   0.000526314   0.000565863   0.000368878   0.000572163  
3750          0.000778844   0.000469949   0.000382769   0.000541423   0.00055103    0.000991308   0.000474139   0.000526314   0.000565863   0.000368878   0.000572163  
3800          0.000778844   0.000469949   0.000382769   0.000541423   0.00055103    0.000991308   0.000474139   0.000526314   0.000565863   0.000368878   0.000572163  
3850          0.000778844   0.000469949   0.000382769   0.000541423   0.00055103    0.000991308   0.000474139   0.000526314   0.000565863   0.000368878   0.000572163  
3900          0.000778844   0.000469949   0.000382769   0.000541423   0.00055103    0.000991308   0.000474139   0.000526314   0.000565863   0.000368878   0.000572163  
3950          0.000778844   0.000469949   0.000382769   0.000541423   0.00055103    0.000991308   0.000474139   0.000526314   0.000565863   0.000368878   0.000572163  
4000          0.000778844   0.000469949   0.000382769   0.000541423   0.00055103    0.000991308   0.000474139   0.000526314   0.000565863   0.000368878   0.000572163  
4050          0.000778844   0.000469949   0.000382769   0.000541423   0.00055103    0.000991308   0.000474139   0.000526314   0.000565863   0.000368878   0.000572163  
4100          0.000778844   0.000469949   0.000382769   0.000541423   0.00055103    0.000991308   0.000474139   0.000526314   0.000565863   0.000368878   0.000572163  
4150          0.000778844   0.000469949   0.000382769   0.000541423   0.00055103    0.000991308   0.000474139   0.000526314   0.000565863   0.000368878   0.000572163  
4200          0.000778844   0.000469949   0.000382769   0.000541423   0.00055103    0.000991308   0.000474139   0.000526314   0.000565863   0.000368878   0.000572163  
4250          0.000778844   0.000469949   0.000382769   0.000541423   0.00055103    0.000991308   0.000474139   0.000526314   0.000565863   0.000368878   0.000572163  
4300          0.000778844   0.000469949   0.000382769   0.000541423   0.00055103    0.000991308   0.000474139   0.000526314   0.000565863   0.000368878   0.000572163  
4350          0.000778844   0.000469949   0.000382769   0.000541423   0.00055103    0.000991308   0.000474139   0.000526314   0.000565863   0.000368878   0.000572163  
4400          0.000778844   0.000469949   0.000382769   0.000541423   0.00055103    0.000991308   0.000474139   0.000526314   0.000565863   0.000368878   0.000572163  
4450          0.000778844   0.000469949   0.000382769   0.000541423   0.00055103    0.000991308   0.000474139   0.000526314   0.000565863   0.000368878   0.000572163  
4500          0.000778844   0.000469949   0.000382769   0.000541423   0.00055103    0.000991308   0.000474139   0.000526314   0.000565863   0.000368878   0.000572163  
4550          0.000778844   0.000469949   0.000382769   0.000541423   0.00055103    0.000991308   0.000474139   0.000526314   0.000565863   0.000368878   0.000572163  
4600          0.000778844   0.000469949   0.000382769   0.000541423   0.00055103    0.000991308   0.000474139   0.000526314   0.000565863   0.000368878   0.000572163  
4650          0.000778844   0.000469949   0.000382769   0.000541423   0.00055103    0.000991308   0.000474139   0.000526314   0.000565863   0.000368878   0.000572163  
4700          0.000778844   0.000469949   0.000382769   0.000541423   0.00055103    0.000991308   0.000474139   0.000526314   0.000565863   0.000368878   0.000572163  
4750          0.000778844   0.000469949   0.000382769   0.000541423   0.00055103    0.000991308   0.000474139   0.000526314   0.000565863   0.000368878   0.000572163  
4800          0.000778844   0.000469949   0.000382769   0.000541423   0.00055103    0.000991308   0.000474139   0.000526314   0.000565863   0.000368878   0.000572163  
4850          0.000778844   0.000469949   0.000382769   0.000541423   0.00055103    0.000991308   0.000474139   0.000526314   0.000565863   0.000368878   0.000572163  
4900          0.000778844   0.000469949   0.000382769   0.000541423   0.00055103    0.000991308   0.000474139   0.000526314   0.000565863   0.000368878   0.000572163  
4950          0.000778844   0.000469949   0.000382769   0.000541423   0.00055103    0.000991308   0.000474139   0.000526314   0.000565863   0.000368878   0.000572163  
5000          0.000778844   0.000469949   0.000382769   0.000541423   0.00055103    0.000991308   0.000474139   0.000526314   0.000565863   0.000368878   0.000572163  
