# Probe 0 (0.0015 0.0015 0)
# Probe 1 (0.0015 0.0015 0.002)
# Probe 2 (0.0015 0.0015 0.004)
# Probe 3 (0.0015 0.0015 0.006)
# Probe 4 (0.0015 0.0015 0.008)
# Probe 5 (0.0015 0.0015 0.01)
# Probe 6 (0.0015 0.0015 0.012)
# Probe 7 (0.0015 0.0015 0.014)
# Probe 8 (0.0015 0.0015 0.016)
# Probe 9 (0.0015 0.0015 0.018)
# Probe 10 (0.0015 0.0015 0.02)
# Time        0             1             2             3             4             5             6             7             8             9             10           
50            (2.02398e+06 222112 -5.17131e+07) (-2.14056e+06 1183.67 -3.53278e+07) (-106738 182523 -1.0633e+07) (-67341 367441 -4.48523e+06) (-55307.8 -46382 -1.11183e+06) (-17280.4 -10520.6 -373118) (-12213.3 -148.53 -81480.4) (-3209.64 -7528.13 84529.8) (9449.68 -5916.32 372344) (-70694.9 -89841.9 1.38304e+06) (-42426.8 39382.2 4.24952e+06)
100           (2.71742e+06 123015 -3.95267e+07) (-1.2579e+06 61421.8 -4.00593e+07) (-153358 219442 -1.75252e+07) (-107660 627244 -8.14223e+06) (-105264 -86927.1 -2.12405e+06) (-34675.9 -14799.6 -729965) (-22931.3 -1448.78 -181418) (-3876.58 -5335.49 72987.6) (10218.2 -6368.58 414479) (-74206.2 -86960.5 1.47254e+06) (-29294.8 44909.7 4.07544e+06)
150           (2.6105e+06 79741.5 -3.24459e+07) (-439926 146246 -3.66656e+07) (-158021 20014 -2.30123e+07) (-156099 893029 -1.29458e+07) (-175629 -148346 -3.65861e+06) (-61400.7 -22023 -1.29353e+06) (-40099.5 -3684.04 -348850) (-5054.09 -1726.48 41475.5) (10864.8 -6747.66 455562) (-77750.9 -83614.4 1.56869e+06) (-15600.5 51008.3 3.87798e+06)
200           (2.486e+06 47419.7 -2.81281e+07) (-72103.5 149181 -3.28467e+07) (-38091.4 -270255 -2.4763e+07) (-240889 1.04962e+06 -1.771e+07) (-256847 -229596 -5.73139e+06) (-98813.4 -33504.3 -2.11467e+06) (-65638 -7272.68 -607565) (-6935.73 3764.54 -18964.1) (11226.2 -6991.52 490426) (-80746.6 -79485.8 1.65993e+06) (-3709.29 56011.8 3.66755e+06)
250           (2.39067e+06 22959.3 -2.51823e+07) (164517 127503 -2.99011e+07) (76833.6 -429824 -2.42567e+07) (-370647 1.07668e+06 -2.09206e+07) (-324918 -320429 -8.19326e+06) (-146740 -51154.4 -3.23818e+06) (-101692 -12820.5 -987834) (-9766.8 11702.7 -119489) (11127.2 -7032.34 513492) (-82796 -74420.2 1.7371e+06) (5432.12 58806.5 3.45401e+06)
300           (2.31667e+06 4304.2 -2.30115e+07) (335840 106334 -2.76296e+07) (134112 -509652 -2.31335e+07) (-472329 1.04304e+06 -2.21259e+07) (-354190 -402955 -1.06513e+07) (-201489 -77597.8 -4.67435e+06) (-150231 -21200.7 -1.52549e+06) (-13840.6 22791.1 -274393) (10369.1 -6784.68 518277) (-83682.1 -68433.6 1.79357e+06) (12034.9 59333 3.24455e+06)
350           (2.25741e+06 -10416.6 -2.13284e+07) (466404 87991.8 -2.58245e+07) (162656 -556656 -2.19734e+07) (-534909 988188 -2.20627e+07) (-343921 -460888 -1.2618e+07) (-253908 -116084 -6.36056e+06) (-212317 -33599.5 -2.26012e+06) (-19507.7 37744 -500745) (8725.36 -6161.49 497231) (-83331.5 -61653.7 1.82453e+06) (16747.8 58140 3.0428e+06)
400           (2.20871e+06 -22353.9 -1.99735e+07) (570202 72225.2 -2.43477e+07) (180111 -588541 -2.0907e+07) (-582795 924663 -2.15001e+07) (-313757 -489899 -1.38312e+07) (-289769 -170741 -8.1271e+06) (-286517 -51218.5 -3.2237e+06) (-27101.5 57113.6 -817650) (5904.99 -5075.55 441009) (-81723.7 -54283.9 1.82568e+06) (20210.4 55848.9 2.84893e+06)
450           (2.16782e+06 -32266.6 -1.88508e+07) (655524 58593.5 -2.31096e+07) (192498 -612022 -1.99534e+07) (-623901 861418 -2.07959e+07) (-277988 -500378 -1.43786e+07) (-295903 -246358 -9.72993e+06) (-367643 -74362.4 -4.4234e+06) (-36928.8 80922.7 -1.24381e+06) (1634.14 -3453.3 338984) (-78873.5 -46556.5 1.79301e+06) (22889.7 52868.5 2.66029e+06)
500           (2.13257e+06 -40798.3 -1.78993e+07) (727260 46687.6 -2.20519e+07) (202157 -629906 -1.9103e+07) (-659157 802911 -2.00726e+07) (-241008 -503891 -1.44993e+07) (-270249 -341050 -1.09639e+07) (-447117 -101236 -5.81609e+06) (-49073.9 108350 -1.79276e+06) (-4377.83 -1230.96 178851) (-74751.5 -38730.8 1.72142e+06) (25059.8 49326.9 2.47183e+06)
550           (2.10197e+06 -48142.3 -1.70783e+07) (788910 36185.1 -2.11331e+07) (209856 -644325 -1.83423e+07) (-689916 749086 -1.93702e+07) (-204686 -504889 -1.43907e+07) (-224803 -440333 -1.17656e+07) (-514681 -127389 -7.29003e+06) (-63496.6 136955 -2.46945e+06) (-12376.8 1573.99 -53012.2) (-69262.2 -30872.6 1.60516e+06) (26969.7 45272.9 2.27691e+06)
600           (2.07497e+06 -54594.1 -1.63592e+07) (842697 26821.4 -2.0324e+07) (216223 -656210 -1.7657e+07) (-716990 699870 -1.87027e+07) (-170446 -504548 -1.41668e+07) (-176411 -526849 -1.22064e+07) (-564045 -148005 -8.68839e+06) (-79824.2 162465 -3.25899e+06) (-22507.2 4872.01 -369875) (-62228.7 -22974.3 1.43683e+06) (28755 40572 2.06727e+06)
650           (2.05085e+06 -60333.6 -1.5721e+07) (890272 18391.7 -1.96027e+07) (221611 -666221 -1.70351e+07) (-741122 654732 -1.80735e+07) (-138649 -503274 -1.38863e+07) (-134615 -594871 -1.24022e+07) (-595163 -160334 -9.8706e+06) (-97602.9 179059 -4.12193e+06) (-34732 8473.63 -782408) (-53399.1 -14822.8 1.20793e+06) (30535 35035.9 1.83336e+06)
700           (2.02909e+06 -65494.9 -1.51482e+07) (932851 10735.7 -1.8953e+07) (226257 -674814 -1.64668e+07) (-762859 613143 -1.7482e+07) (-109154 -501378 -1.35789e+07) (-100901 -647708 -1.24474e+07) (-612249 -164678 -1.07684e+07) (-116528 180974 -4.99534e+06) (-48790.6 12125.1 -1.29509e+06) (-42476 -5978.75 909523) (32418.6 28442.6 1.56453e+06)
750           (2.00928e+06 -70180.4 -1.46291e+07) (971345 3726.42 -1.83622e+07) (230325 -682306 -1.59438e+07) (-782614 574622 -1.69254e+07) (-81691 -499082 -1.32597e+07) (-73594.6 -690225 -1.24011e+07) (-620083 -163462 -1.13915e+07) (-136383 164920 -5.80672e+06) (-64209.4 15601.3 -1.90184e+06) (-29170.8 4253.4 533680) (34515.1 20574.1 1.24965e+06)
800           (1.99115e+06 -74452.6 -1.41546e+07) (1.0065e+06 -2741.15 -1.78205e+07) (233898 -688995 -1.54593e+07) (-800798 538587 -1.63998e+07) (-55919.8 -496473 -1.29364e+07) (-50779.8 -726020 -1.22969e+07) (-622203 -159406 -1.1793e+07) (-156419 131643 -6.49679e+06) (-80418.4 18809.5 -2.58234e+06) (-13281.9 16867.1 76055.3) (36969.9 11291.7 878144)
850           (1.97431e+06 -78416.9 -1.3717e+07) (1.03882e+06 -8751.89 -1.73197e+07) (237134 -694892 -1.50072e+07) (-817536 504964 -1.59022e+07) (-31720.1 -493760 -1.2614e+07) (-31246 -756866 -1.21541e+07) (-621342 -154512 -1.20345e+07) (-175628 85908.1 -7.03884e+06) (-96795.3 21924 -3.30086e+06) (5203.76 32932.9 -461291) (39848.9 472.218 441464)
900           (1.95862e+06 -82104.5 -1.33103e+07) (1.06881e+06 -14375.6 -1.68532e+07) (240069 -700215 -1.45827e+07) (-833122 473282 -1.54292e+07) (-8828.98 -490948 -1.22951e+07) (-13991.5 -784218 -1.19867e+07) (-618752 -149552 -1.21683e+07) (-193050 33172.2 -7.43983e+06) (-112952 25211 -4.01436e+06) (26050.3 53592.3 -1.06737e+06) (43288.8 -11774.6 -64553.4)
950           (1.9439e+06 -85556.7 -1.293e+07) (1.09682e+06 -19665.5 -1.64162e+07) (242758 -705072 -1.41824e+07) (-847722 443316 -1.49787e+07) (12891.6 -488101 -1.19827e+07) (1614.83 -808961 -1.18056e+07) (-615210 -144748 -1.22338e+07) (-208684 -22029.1 -7.72777e+06) (-128580 28871 -4.68342e+06) (48775.1 79566.3 -1.72235e+06) (47374.2 -25207.8 -638237)
1000          (1.93004e+06 -88803.7 -1.25725e+07) (1.12311e+06 -24658.3 -1.60047e+07) (245248 -709559 -1.38038e+07) (-861461 414925 -1.45498e+07) (33515.3 -485283 -1.16798e+07) (15981.3 -831714 -1.16199e+07) (-611217 -140137 -1.22593e+07) (-223028 -76788.6 -7.93534e+06) (-143379 32836.5 -5.28323e+06) (72716.6 110847 -2.40049e+06) (52139.3 -39456.9 -1.27117e+06)
1050          (1.91695e+06 -91865.8 -1.22356e+07) (1.14789e+06 -29375.9 -1.56166e+07) (247574 -713747 -1.34458e+07) (-874421 388045 -1.41426e+07) (53063.7 -482555 -1.13895e+07) (29351.2 -852892 -1.14368e+07) (-607136 -135746 -1.22636e+07) (-236499 -129472 -8.09006e+06) (-157073 36811.3 -5.80663e+06) (97136.1 146557 -3.07509e+06) (57546.6 -54083 -1.94859e+06)
1100          (1.90461e+06 -94754.7 -1.19176e+07) (1.17126e+06 -33828.2 -1.52504e+07) (249763 -717691 -1.31078e+07) (-886647 362664 -1.3758e+07) (71523.6 -479967 -1.11145e+07) (41855.2 -872747 -1.12617e+07) (-603232 -131621 -1.2259e+07) (-249254 -179219 -8.2117e+06) (-169494 40482.5 -6.25949e+06) (121315 185135 -3.72366e+06) (63478.7 -68651.1 -2.65117e+06)
1150          (1.89299e+06 -97475.6 -1.16181e+07) (1.19328e+06 -38017.2 -1.49056e+07) (251830 -721422 -1.279e+07) (-898161 338804 -1.33969e+07) (88865.9 -477558 -1.0857e+07) (53555.4 -891418 -1.10982e+07) (-599672 -127807 -1.2253e+07) (-261287 -225590 -8.31337e+06) (-180633 43681.9 -6.65339e+06) (144631 224746 -4.33083e+06) (69749.8 -82787.6 -3.35771e+06)
1200          (1.88209e+06 -100029 -1.13369e+07) (1.21398e+06 -41940.7 -1.45821e+07) (253785 -724959 -1.24927e+07) (-908964 316498 -1.30601e+07) (105059 -475353 -1.06184e+07) (64477.1 -908967 -1.09485e+07) (-596551 -124334 -1.225e+07) (-272548 -268371 -8.40336e+06) (-190590 46397.6 -7.00013e+06) (166613 263701 -4.88863e+06) (76137.8 -96208.9 -4.04802e+06)
1250          (1.87193e+06 -102415 -1.1074e+07) (1.23334e+06 -45595 -1.42801e+07) (255631 -728308 -1.22161e+07) (-919051 295773 -1.27482e+07) (120078 -473364 -1.03994e+07) (74629 -925414 -1.08137e+07) (-593908 -121218 -1.22523e+07) (-282996 -307480 -8.48663e+06) (-199511 48701.3 -7.30915e+06) (186956 300722 -5.39474e+06) (82422.6 -108724 -4.70535e+06)
1300          (1.86247e+06 -104636 -1.083e+07) (1.25131e+06 -48965.4 -1.4e+07) (257380 -731450 -1.19606e+07) (-928317 276737 -1.24617e+07) (133882 -471603 -1.02001e+07) (84011 -940640 -1.06935e+07) (-591774 -118531 -1.22601e+07) (-292616 -342786 -8.56578e+06) (-207490 50692 -7.58696e+06) (205489 334914 -5.85064e+06) (88369.3 -120262 -5.31762e+06)
1350          (1.85379e+06 -106681 -1.06043e+07) (1.26796e+06 -52075.9 -1.37416e+07) (259001 -734413 -1.1726e+07) (-936963 259201 -1.22001e+07) (146537 -470041 -1.00207e+07) (92634.5 -954875 -1.05885e+07) (-590044 -116102 -1.2274e+07) (-301404 -374690 -8.64202e+06) (-214712 52417.5 -7.83802e+06) (222225 366057 -6.25841e+06) (93952.7 -130693 -5.87768e+06)
1400          (1.84584e+06 -108556 -1.03971e+07) (1.28327e+06 -54917.4 -1.35048e+07) (260510 -737179 -1.15121e+07) (-944889 243237 -1.1963e+07) (158032 -468681 -9.86026e+06) (100505 -967997 -1.04975e+07) (-588720 -113994 -1.22929e+07) (-309378 -403175 -8.71555e+06) (-221212 53940.6 -8.06503e+06) (237185 393939 -6.62173e+06) (99042.6 -140061 -6.38252e+06)
1450          (1.83865e+06 -110232 -1.02084e+07) (1.29726e+06 -57475.3 -1.32895e+07) (261901 -739753 -1.13183e+07) (-952117 228805 -1.17497e+07) (168407 -467511 -9.71763e+06) (107637 -979978 -1.04188e+07) (-587765 -112162 -1.23157e+07) (-316610 -428482 -8.78592e+06) (-227046 55297.8 -8.26972e+06) (250502 418652 -6.9445e+06) (103577 -148430 -6.83247e+06)
1500          (1.83211e+06 -111783 -1.00373e+07) (1.30992e+06 -59801.7 -1.30946e+07) (263179 -742106 -1.11439e+07) (-958644 215830 -1.15589e+07) (177710 -466503 -9.59177e+06) (114068 -990896 -1.03518e+07) (-587069 -110610 -1.23407e+07) (-323047 -450786 -8.85278e+06) (-232269 56501.7 -8.45393e+06) (262227 440382 -7.22955e+06) (107632 -155804 -7.23014e+06)
1550          (1.82624e+06 -113179 -9.88317e+06) (1.32134e+06 -61887.8 -1.29193e+07) (264343 -744258 -1.09879e+07) (-964516 204235 -1.13891e+07) (186006 -465645 -9.48127e+06) (119827 -1.00076e+06 -1.02951e+07) (-586607 -109286 -1.23672e+07) (-328778 -470372 -8.91552e+06) (-236925 57572.7 -8.6188e+06) (272528 459380 -7.48056e+06) (111198 -162288 -7.57927e+06)
1600          (1.82101e+06 -114450 -9.74523e+06) (1.33157e+06 -63780.3 -1.27627e+07) (265379 -746250 -1.0849e+07) (-969836 193824 -1.12387e+07) (193385 -464892 -9.38462e+06) (124980 -1.00972e+06 -1.02468e+07) (-586252 -108156 -1.23942e+07) (-333807 -487601 -8.97364e+06) (-241084 58516.6 -8.76557e+06) (281562 475973 -7.70096e+06) (114388 -167909 -7.88435e+06)
1650          (1.81635e+06 -115558 -9.62237e+06) (1.34069e+06 -65426 -1.26234e+07) (266327 -748002 -1.0726e+07) (-974499 184718 -1.11062e+07) (199882 -464277 -9.30035e+06) (129521 -1.0176e+06 -1.02062e+07) (-586109 -107202 -1.24204e+07) (-338297 -502531 -9.02705e+06) (-244730 59357.9 -8.89576e+06) (289433 490330 -7.89377e+06) (117089 -172868 -8.14993e+06)
1700          (1.81223e+06 -116539 -9.51345e+06) (1.34878e+06 -66879 -1.25001e+07) (267175 -749572 -1.06175e+07) (-978627 176697 -1.099e+07) (205597 -463758 -9.22714e+06) (133525 -1.0246e+06 -1.01719e+07) (-586066 -106393 -1.24455e+07) (-342244 -515516 -9.07559e+06) (-247939 60100 -9.01066e+06) (296284 502767 -8.06199e+06) (119431 -177181 -8.3805e+06)
1750          (1.80859e+06 -117405 -9.41733e+06) (1.35593e+06 -68157 -1.23914e+07) (267930 -750969 -1.05223e+07) (-982266 169659 -1.08883e+07) (210606 -463320 -9.16368e+06) (137041 -1.03078e+06 -1.0143e+07) (-586091 -105708 -1.24691e+07) (-345702 -526785 -9.11931e+06) (-250753 60751.9 -9.11167e+06) (302235 513520 -8.20842e+06) (121458 -180925 -8.58027e+06)
1800          (1.8054e+06 -118165 -9.33285e+06) (1.36221e+06 -69277.1 -1.22959e+07) (268597 -752207 -1.04388e+07) (-985462 163501 -1.07995e+07) (214983 -462950 -9.10875e+06) (140120 -1.03622e+06 -1.01186e+07) (-586159 -105127 -1.24908e+07) (-348721 -536546 -9.15841e+06) (-253213 61322.7 -9.20015e+06) (307395 522807 -8.33563e+06) (123209 -184168 -8.75305e+06)
1850          (1.80262e+06 -118832 -9.25884e+06) (1.36772e+06 -70255.8 -1.22124e+07) (269185 -753299 -1.0366e+07) (-988260 158129 -1.07223e+07) (218798 -462637 -9.06129e+06) (142807 -1.04098e+06 -1.0098e+07) (-586253 -104634 -1.25107e+07) (-351352 -544990 -9.19315e+06) (-255358 61821.1 -9.27744e+06) (311862 530818 -8.44593e+06) (124720 -186974 -8.90232e+06)
1900          (1.80018e+06 -119413 -9.1942e+06) (1.37253e+06 -71108.7 -1.21395e+07) (269701 -754258 -1.03026e+07) (-990702 153455 -1.06553e+07) (222114 -462372 -9.02031e+06) (145147 -1.04515e+06 -1.00805e+07) (-586361 -104215 -1.25286e+07) (-353639 -552284 -9.22384e+06) (-257224 62255.2 -9.34475e+06) (315724 537724 -8.54144e+06) (126022 -189398 -9.03114e+06)
1950          (1.79802e+06 -119948 -9.13792e+06) (1.37671e+06 -71835.5 -1.2076e+07) (270175 -755059 -1.02474e+07) (-992756 149468 -1.05972e+07) (224974 -462159 -8.98497e+06) (147180 -1.04868e+06 -1.00654e+07) (-586499 -103886 -1.25445e+07) (-355641 -558514 -9.25083e+06) (-258830 62634.3 -9.4032e+06) (319059 543626 -8.62416e+06) (127103 -191513 -9.14218e+06)
2000          (1.79619e+06 -120383 -9.089e+06) (1.38035e+06 -72481 -1.20209e+07) (270565 -755794 -1.01996e+07) (-994611 145943 -1.05469e+07) (227470 -461967 -8.95451e+06) (148944 -1.05184e+06 -1.00529e+07) (-586607 -103574 -1.25587e+07) (-357353 -563946 -9.27446e+06) (-260238 62960.9 -9.45396e+06) (321932 548749 -8.69549e+06) (128071 -193317 -9.2379e+06)
2050          (1.7946e+06 -120761 -9.04655e+06) (1.38352e+06 -73040.1 -1.19731e+07) (270905 -756436 -1.01583e+07) (-996221 142888 -1.05034e+07) (229628 -461804 -8.92829e+06) (150469 -1.05459e+06 -1.00422e+07) (-586711 -103313 -1.25713e+07) (-358837 -568633 -9.2951e+06) (-261454 63244.1 -9.49791e+06) (324415 553163 -8.75703e+06) (128907 -194869 -9.32033e+06)
2100          (1.79323e+06 -121089 -9.00979e+06) (1.38626e+06 -73523.7 -1.19317e+07) (271200 -756994 -1.01225e+07) (-997615 140248 -1.04658e+07) (231494 -461665 -8.90574e+06) (151788 -1.05698e+06 -1.00332e+07) (-586809 -103091 -1.25824e+07) (-360119 -572670 -9.31307e+06) (-262504 63488.9 -9.53592e+06) (326553 556961 -8.81008e+06) (129627 -196205 -9.39127e+06)
2150          (1.79204e+06 -121372 -8.97798e+06) (1.38864e+06 -73941.6 -1.18959e+07) (271456 -757478 -1.00916e+07) (-998820 137968 -1.04334e+07) (233104 -461548 -8.88633e+06) (152926 -1.05904e+06 -1.00255e+07) (-586899 -102901 -1.2592e+07) (-361226 -576144 -9.32868e+06) (-263411 63700.5 -9.56875e+06) (328395 560226 -8.85579e+06) (130246 -197356 -9.4523e+06)
2200          (1.79101e+06 -121617 -8.95051e+06) (1.39069e+06 -74302.4 -1.18651e+07) (271677 -757897 -1.00649e+07) (-999861 136001 -1.04055e+07) (234492 -461447 -8.86965e+06) (153909 -1.06082e+06 -1.00189e+07) (-586981 -102739 -1.26005e+07) (-362180 -579132 -9.34222e+06) (-264193 63883 -9.59708e+06) (329979 563033 -8.89514e+06) (130778 -198346 -9.50478e+06)
2250          (1.79013e+06 -121828 -8.9268e+06) (1.39246e+06 -74613.4 -1.18384e+07) (271869 -758259 -1.00419e+07) (-1.00076e+06 134305 -1.03815e+07) (235689 -461362 -8.85531e+06) (154756 -1.06236e+06 -1.00133e+07) (-587055 -102600 -1.26078e+07) (-363002 -581702 -9.35393e+06) (-264867 64040.4 -9.6215e+06) (331343 565445 -8.92901e+06) (131235 -199197 -9.5499e+06)
2300          (1.78936e+06 -122010 -8.90636e+06) (1.39398e+06 -74881.5 -1.18154e+07) (272034 -758572 -1.00221e+07) (-1.00153e+06 132845 -1.03608e+07) (236719 -461289 -8.84299e+06) (155485 -1.06368e+06 -1.00085e+07) (-587121 -102482 -1.26142e+07) (-363709 -583912 -9.36406e+06) (-265448 64176 -9.64254e+06) (332515 567518 -8.95814e+06) (131627 -199928 -9.58867e+06)
2350          (1.78871e+06 -122167 -8.88878e+06) (1.3953e+06 -75111.7 -1.17957e+07) (272181 -758825 -1.00051e+07) (-1.00221e+06 131592 -1.03429e+07) (237612 -461223 -8.83238e+06) (156110 -1.06483e+06 -1.00045e+07) (-587201 -102366 -1.26198e+07) (-364332 -585805 -9.3728e+06) (-265943 64296.1 -9.6607e+06) (333515 569310 -8.98316e+06) (131966 -200561 -9.622e+06)
2400          (1.78814e+06 -122305 -8.87365e+06) (1.39643e+06 -75312.2 -1.17786e+07) (272306 -759047 -9.99055e+06) (-1.00278e+06 130529 -1.03275e+07) (238358 -461186 -8.82342e+06) (156640 -1.06579e+06 -1.00008e+07) (-587272 -102285 -1.26246e+07) (-364860 -587410 -9.38027e+06) (-266374 64401.8 -9.67627e+06) (334375 570819 -9.00465e+06) (132248 -201109 -9.65059e+06)
2450          (1.78765e+06 -122422 -8.86064e+06) (1.39738e+06 -75491.1 -1.17639e+07) (272421 -759221 -9.97802e+06) (-1.00325e+06 129602 -1.03143e+07) (239001 -461135 -8.81571e+06) (157132 -1.0666e+06 -9.99768e+06) (-587324 -102229 -1.26288e+07) (-365286 -588751 -9.38669e+06) (-266756 64494.2 -9.68961e+06) (335081 572095 -9.02316e+06) (132529 -201542 -9.67513e+06)
2500          (1.78724e+06 -122517 -8.84945e+06) (1.39823e+06 -75625 -1.17514e+07) (272489 -759434 -9.96712e+06) (-1.00369e+06 128780 -1.03031e+07) (239570 -461083 -8.80895e+06) (157510 -1.06737e+06 -9.99524e+06) (-587322 -102154 -1.26322e+07) (-365675 -590014 -9.39232e+06) (-267078 64554 -9.70109e+06) (335760 573257 -9.03899e+06) (132725 -201948 -9.6962e+06)
2550          (1.78693e+06 -122568 -8.83992e+06) (1.39898e+06 -75749.5 -1.17405e+07) (272575 -759615 -9.95807e+06) (-1.00403e+06 128088 -1.02932e+07) (240051 -461065 -8.80336e+06) (157919 -1.06801e+06 -9.99288e+06) (-587346 -102125 -1.26356e+07) (-366011 -591074 -9.39693e+06) (-267336 64608.9 -9.71109e+06) (336276 574249 -9.05251e+06) (132920 -202283 -9.71426e+06)
2600          (1.78658e+06 -122672 -8.83183e+06) (1.39954e+06 -75857 -1.17316e+07) (272638 -759703 -9.95005e+06) (-1.00434e+06 127543 -1.02853e+07) (240455 -461028 -8.79833e+06) (158137 -1.0685e+06 -9.99121e+06) (-587392 -102063 -1.26378e+07) (-366274 -591894 -9.40112e+06) (-267568 64670.8 -9.71919e+06) (336763 575017 -9.06401e+06) (133054 -202585 -9.72943e+06)
2650          (1.78635e+06 -122738 -8.82491e+06) (1.40007e+06 -75966 -1.17239e+07) (272705 -759809 -9.9433e+06) (-1.00467e+06 126980 -1.02783e+07) (240849 -460967 -8.794e+06) (158434 -1.06904e+06 -9.98972e+06) (-587387 -101986 -1.26402e+07) (-366534 -592723 -9.40457e+06) (-267768 64716.3 -9.72643e+06) (337139 575786 -9.07392e+06) (133234 -202805 -9.7427e+06)
2700          (1.7861e+06 -122794 -8.81879e+06) (1.40053e+06 -76028.3 -1.1717e+07) (272751 -759885 -9.93733e+06) (-1.00488e+06 126590 -1.02722e+07) (241135 -460974 -8.7904e+06) (158600 -1.06937e+06 -9.9882e+06) (-587439 -101944 -1.26419e+07) (-366757 -593331 -9.40761e+06) (-267935 64769.4 -9.73263e+06) (337517 576366 -9.08258e+06) (133303 -203052 -9.7542e+06)
2750          (1.78589e+06 -122853 -8.81362e+06) (1.4009e+06 -76092.6 -1.17112e+07) (272821 -759920 -9.93235e+06) (-1.00504e+06 126275 -1.0267e+07) (241395 -460950 -8.78723e+06) (158801 -1.06966e+06 -9.98708e+06) (-587496 -101931 -1.26435e+07) (-366959 -593819 -9.41026e+06) (-268056 64808 -9.73792e+06) (337778 576863 -9.08996e+06) (133389 -203244 -9.76386e+06)
2800          (1.78573e+06 -122896 -8.80924e+06) (1.40125e+06 -76137.4 -1.17062e+07) (272828 -760044 -9.92811e+06) (-1.00519e+06 125926 -1.02625e+07) (241633 -460940 -8.78464e+06) (159009 -1.06997e+06 -9.98591e+06) (-587424 -101908 -1.26449e+07) (-367021 -594335 -9.41234e+06) (-268189 64837.6 -9.74233e+06) (338053 577310 -9.09629e+06) (133485 -203381 -9.77214e+06)
2850          (1.78559e+06 -122938 -8.80563e+06) (1.40152e+06 -76187.3 -1.17022e+07) (272865 -760115 -9.92459e+06) (-1.00534e+06 125650 -1.02589e+07) (241805 -460915 -8.78248e+06) (159119 -1.07022e+06 -9.98518e+06) (-587431 -101899 -1.26461e+07) (-367221 -594815 -9.41417e+06) (-268296 64835.4 -9.7461e+06) (338292 577722 -9.1013e+06) (133544 -203516 -9.77896e+06)
2900          (1.78549e+06 -122932 -8.80225e+06) (1.40177e+06 -76227.1 -1.16984e+07) (272875 -760189 -9.92133e+06) (-1.00546e+06 125402 -1.02555e+07) (241962 -460907 -8.78051e+06) (159242 -1.07044e+06 -9.98429e+06) (-587423 -101890 -1.26472e+07) (-367304 -595132 -9.41582e+06) (-268396 64863.8 -9.74957e+06) (338470 578043 -9.1061e+06) (133614 -203627 -9.78532e+06)
2950          (1.78536e+06 -122970 -8.79955e+06) (1.40194e+06 -76283.9 -1.16953e+07) (272933 -760148 -9.91879e+06) (-1.00555e+06 125286 -1.02527e+07) (242080 -460924 -8.77896e+06) (159301 -1.07055e+06 -9.98365e+06) (-587555 -101875 -1.26481e+07) (-367431 -595318 -9.41712e+06) (-268465 64898.5 -9.75246e+06) (338574 578257 -9.10984e+06) (133656 -203751 -9.79041e+06)
3000          (1.7853e+06 -122977 -8.79712e+06) (1.40216e+06 -76303.7 -1.16926e+07) (272913 -760271 -9.91637e+06) (-1.00569e+06 125027 -1.02503e+07) (242227 -460903 -8.77744e+06) (159407 -1.0708e+06 -9.98319e+06) (-587459 -101838 -1.26488e+07) (-367480 -595702 -9.41838e+06) (-268540 64903.2 -9.75485e+06) (338768 578566 -9.11334e+06) (133713 -203818 -9.79499e+06)
3050          (1.7852e+06 -123033 -8.79522e+06) (1.40228e+06 -76346.2 -1.16904e+07) (272936 -760291 -9.91458e+06) (-1.00573e+06 124908 -1.02483e+07) (242321 -460885 -8.77631e+06) (159492 -1.0709e+06 -9.98271e+06) (-587473 -101846 -1.26495e+07) (-367549 -595907 -9.41943e+06) (-268594 64902.8 -9.75674e+06) (338850 578752 -9.11612e+06) (133757 -203889 -9.79863e+06)
3100          (1.7852e+06 -122968 -8.79354e+06) (1.40245e+06 -76341.3 -1.16886e+07) (272937 -760353 -9.91291e+06) (-1.00583e+06 124755 -1.02467e+07) (242399 -460893 -8.77527e+06) (159537 -1.07105e+06 -9.98239e+06) (-587487 -101845 -1.265e+07) (-367641 -596103 -9.42016e+06) (-268623 64929.7 -9.75858e+06) (338980 578956 -9.11844e+06) (133793 -203941 -9.80179e+06)
3150          (1.7851e+06 -123030 -8.79212e+06) (1.40252e+06 -76377.2 -1.1687e+07) (272961 -760346 -9.91149e+06) (-1.00585e+06 124679 -1.02452e+07) (242470 -460882 -8.7744e+06) (159581 -1.07111e+06 -9.98199e+06) (-587476 -101834 -1.26503e+07) (-367650 -596234 -9.42088e+06) (-268686 64930.6 -9.75999e+06) (339053 579055 -9.1205e+06) (133815 -203999 -9.80452e+06)
3200          (1.78507e+06 -123021 -8.79088e+06) (1.40261e+06 -76398.2 -1.16857e+07) (272978 -760339 -9.91031e+06) (-1.00592e+06 124606 -1.0244e+07) (242531 -460878 -8.77364e+06) (159590 -1.07119e+06 -9.98186e+06) (-587537 -101815 -1.26507e+07) (-367714 -596347 -9.42157e+06) (-268740 64937.4 -9.76132e+06) (339108 579169 -9.12214e+06) (133850 -204051 -9.80684e+06)
3250          (1.78503e+06 -123043 -8.78968e+06) (1.40272e+06 -76398.7 -1.16843e+07) (272996 -760370 -9.90918e+06) (-1.00596e+06 124506 -1.02427e+07) (242608 -460863 -8.77294e+06) (159707 -1.07127e+06 -9.98145e+06) (-587488 -101800 -1.26513e+07) (-367775 -596516 -9.42208e+06) (-268751 64947.6 -9.76258e+06) (339175 579333 -9.12393e+06) (133864 -204079 -9.8091e+06)
3300          (1.78497e+06 -123054 -8.78879e+06) (1.40276e+06 -76412.6 -1.16833e+07) (272998 -760369 -9.90829e+06) (-1.00596e+06 124481 -1.02419e+07) (242631 -460874 -8.77242e+06) (159704 -1.07128e+06 -9.9812e+06) (-587504 -101810 -1.26513e+07) (-367773 -596533 -9.42258e+06) (-268781 64962.2 -9.76337e+06) (339223 579362 -9.12518e+06) (133872 -204116 -9.81068e+06)
3350          (1.78497e+06 -123035 -8.78797e+06) (1.40283e+06 -76424.7 -1.16823e+07) (272997 -760387 -9.90752e+06) (-1.00602e+06 124408 -1.0241e+07) (242683 -460885 -8.77195e+06) (159732 -1.07135e+06 -9.98101e+06) (-587525 -101777 -1.26516e+07) (-367786 -596622 -9.4229e+06) (-268805 64979.6 -9.76423e+06) (339266 579444 -9.12641e+06) (133899 -204148 -9.81226e+06)
3400          (1.78492e+06 -123088 -8.78733e+06) (1.40287e+06 -76452 -1.16817e+07) (273008 -760397 -9.90685e+06) (-1.00605e+06 124323 -1.02404e+07) (242709 -460842 -8.77149e+06) (159717 -1.07144e+06 -9.98104e+06) (-587514 -101817 -1.2652e+07) (-367856 -596769 -9.42339e+06) (-268839 64939.7 -9.76501e+06) (339326 579551 -9.12725e+06) (133923 -204170 -9.81357e+06)
3450          (1.78491e+06 -123067 -8.78678e+06) (1.40292e+06 -76448 -1.1681e+07) (273026 -760373 -9.90635e+06) (-1.00608e+06 124321 -1.02398e+07) (242747 -460859 -8.77115e+06) (159757 -1.07145e+06 -9.98086e+06) (-587561 -101774 -1.26521e+07) (-367878 -596762 -9.42359e+06) (-268836 64977.3 -9.76557e+06) (339325 579590 -9.12803e+06) (133920 -204195 -9.81463e+06)
3500          (1.78491e+06 -123042 -8.78627e+06) (1.40296e+06 -76455.4 -1.16804e+07) (272996 -760430 -9.9059e+06) (-1.00609e+06 124280 -1.02392e+07) (242762 -460883 -8.77092e+06) (159802 -1.07146e+06 -9.9805e+06) (-587531 -101780 -1.26522e+07) (-367824 -596789 -9.42366e+06) (-268823 64993.6 -9.76593e+06) (339344 579618 -9.12905e+06) (133936 -204207 -9.81562e+06)
3550          (1.78487e+06 -123087 -8.78597e+06) (1.40298e+06 -76457.1 -1.16801e+07) (273025 -760417 -9.90556e+06) (-1.0061e+06 124245 -1.0239e+07) (242793 -460851 -8.77067e+06) (159819 -1.07151e+06 -9.98058e+06) (-587514 -101778 -1.26523e+07) (-367891 -596907 -9.42391e+06) (-268856 64974.6 -9.76637e+06) (339390 579700 -9.12927e+06) (133938 -204217 -9.81625e+06)
3600          (1.78486e+06 -123091 -8.78579e+06) (1.40299e+06 -76464.5 -1.16799e+07) (273027 -760410 -9.90537e+06) (-1.0061e+06 124240 -1.02388e+07) (242798 -460852 -8.77054e+06) (159810 -1.07151e+06 -9.98052e+06) (-587526 -101779 -1.26523e+07) (-367888 -596901 -9.424e+06) (-268866 64977.3 -9.76655e+06) (339396 579700 -9.12956e+06) (133945 -204226 -9.81663e+06)
3650          (1.78485e+06 -123095 -8.78544e+06) (1.40302e+06 -76470.2 -1.16795e+07) (273020 -760440 -9.90501e+06) (-1.00612e+06 124190 -1.02384e+07) (242819 -460850 -8.7703e+06) (159829 -1.07156e+06 -9.9804e+06) (-587498 -101781 -1.26524e+07) (-367887 -596981 -9.42415e+06) (-268879 64972.1 -9.76693e+06) (339438 579758 -9.13011e+06) (133955 -204236 -9.81739e+06)
3700          (1.78483e+06 -123113 -8.78526e+06) (1.40302e+06 -76472.6 -1.16793e+07) (273035 -760414 -9.90483e+06) (-1.00611e+06 124211 -1.02382e+07) (242824 -460851 -8.77017e+06) (159833 -1.07154e+06 -9.98032e+06) (-587513 -101774 -1.26524e+07) (-367907 -596957 -9.42422e+06) (-268872 64985.2 -9.76708e+06) (339426 579763 -9.1304e+06) (133944 -204252 -9.81782e+06)
3750          (1.78484e+06 -123103 -8.78509e+06) (1.40306e+06 -76477.2 -1.16791e+07) (273027 -760442 -9.90471e+06) (-1.00616e+06 124149 -1.0238e+07) (242848 -460841 -8.77006e+06) (159852 -1.07161e+06 -9.98035e+06) (-587506 -101774 -1.26526e+07) (-367909 -597051 -9.42428e+06) (-268893 64969.5 -9.76737e+06) (339462 579824 -9.13061e+06) (133977 -204245 -9.81813e+06)
3800          (1.78484e+06 -123103 -8.78509e+06) (1.40306e+06 -76477.2 -1.16791e+07) (273027 -760442 -9.90471e+06) (-1.00616e+06 124149 -1.0238e+07) (242848 -460841 -8.77006e+06) (159852 -1.07161e+06 -9.98035e+06) (-587506 -101774 -1.26526e+07) (-367909 -597051 -9.42428e+06) (-268893 64969.5 -9.76737e+06) (339462 579824 -9.13061e+06) (133977 -204245 -9.81813e+06)
3850          (1.78484e+06 -123103 -8.78509e+06) (1.40306e+06 -76477.2 -1.16791e+07) (273027 -760442 -9.90471e+06) (-1.00616e+06 124149 -1.0238e+07) (242848 -460841 -8.77006e+06) (159852 -1.07161e+06 -9.98035e+06) (-587506 -101774 -1.26526e+07) (-367909 -597051 -9.42428e+06) (-268893 64969.5 -9.76737e+06) (339462 579824 -9.13061e+06) (133977 -204245 -9.81813e+06)
3900          (1.78484e+06 -123103 -8.78509e+06) (1.40306e+06 -76477.2 -1.16791e+07) (273027 -760442 -9.90471e+06) (-1.00616e+06 124149 -1.0238e+07) (242848 -460841 -8.77006e+06) (159852 -1.07161e+06 -9.98035e+06) (-587506 -101774 -1.26526e+07) (-367909 -597051 -9.42428e+06) (-268893 64969.5 -9.76737e+06) (339462 579824 -9.13061e+06) (133977 -204245 -9.81813e+06)
3950          (1.78484e+06 -123103 -8.78509e+06) (1.40306e+06 -76477.2 -1.16791e+07) (273027 -760442 -9.90471e+06) (-1.00616e+06 124149 -1.0238e+07) (242848 -460841 -8.77006e+06) (159852 -1.07161e+06 -9.98035e+06) (-587506 -101774 -1.26526e+07) (-367909 -597051 -9.42428e+06) (-268893 64969.5 -9.76737e+06) (339462 579824 -9.13061e+06) (133977 -204245 -9.81813e+06)
4000          (1.78484e+06 -123103 -8.78509e+06) (1.40306e+06 -76477.2 -1.16791e+07) (273027 -760442 -9.90471e+06) (-1.00616e+06 124149 -1.0238e+07) (242848 -460841 -8.77006e+06) (159852 -1.07161e+06 -9.98035e+06) (-587506 -101774 -1.26526e+07) (-367909 -597051 -9.42428e+06) (-268893 64969.5 -9.76737e+06) (339462 579824 -9.13061e+06) (133977 -204245 -9.81813e+06)
4050          (1.78484e+06 -123103 -8.78509e+06) (1.40306e+06 -76477.2 -1.16791e+07) (273027 -760442 -9.90471e+06) (-1.00616e+06 124149 -1.0238e+07) (242848 -460841 -8.77006e+06) (159852 -1.07161e+06 -9.98035e+06) (-587506 -101774 -1.26526e+07) (-367909 -597051 -9.42428e+06) (-268893 64969.5 -9.76737e+06) (339462 579824 -9.13061e+06) (133977 -204245 -9.81813e+06)
4100          (1.78484e+06 -123103 -8.78509e+06) (1.40306e+06 -76477.2 -1.16791e+07) (273027 -760442 -9.90471e+06) (-1.00616e+06 124149 -1.0238e+07) (242848 -460841 -8.77006e+06) (159852 -1.07161e+06 -9.98035e+06) (-587506 -101774 -1.26526e+07) (-367909 -597051 -9.42428e+06) (-268893 64969.5 -9.76737e+06) (339462 579824 -9.13061e+06) (133977 -204245 -9.81813e+06)