# Probe 0 (0.0015 0.0015 0)
# Probe 1 (0.0015 0.0015 0.002)
# Probe 2 (0.0015 0.0015 0.004)
# Probe 3 (0.0015 0.0015 0.006)
# Probe 4 (0.0015 0.0015 0.008)
# Probe 5 (0.0015 0.0015 0.01)
# Probe 6 (0.0015 0.0015 0.012)
# Probe 7 (0.0015 0.0015 0.014)
# Probe 8 (0.0015 0.0015 0.016)
# Probe 9 (0.0015 0.0015 0.018)
# Probe 10 (0.0015 0.0015 0.02)
# Time        0             1             2             3             4             5             6             7             8             9             10           
50            (-761.272 -400.432 39914.1) (1544.64 -64.827 25897.6) (130.363 -674.642 12747.5) (38.2463 -177.482 2486.09) (32.0452 24.9188 1070.47) (9.75944 4.38621 195.531) (5.59699 0.126781 45.8364) (1.68441 4.77533 -61.2404) (-5.94537 3.55918 -242.811) (55.0605 91.5972 -648.739) (-121.125 -45.1829 -2087.49)
100           (-912.614 330.652 30500.3) (1084.82 -74.8131 29937.7) (186.803 -885.975 21151.6) (63.3617 -301.614 4508.45) (61.4432 46.7985 2046.14) (19.1458 7.16162 383.83) (10.4133 1.43695 102.082) (2.07941 2.79398 -52.9461) (-6.40884 3.83223 -270.248) (57.8696 83.0991 -691.525) (-157.52 -51.9229 -1998)
150           (-857.373 458.544 25036) (555.999 -102.58 27817.4) (172.58 -675.206 28158.7) (91.7202 -426.33 7155.08) (102.403 80.5791 3523.05) (33.5841 11.7273 681.249) (18.1186 3.64833 196.732) (2.75281 -0.663416 -30.2235) (-6.80825 4.05563 -297.184) (60.7102 73.7955 -737.537) (-196.102 -59.4328 -1897.25)
200           (-803.24 508.091 21704.3) (280.191 -94.3139 25100.4) (42.0803 -222.243 30751.7) (125.866 -495.913 9760.26) (148.634 126.495 5511.58) (53.837 18.7523 1114.68) (29.572 7.13506 343.438) (3.81226 -6.12155 13.404) (-7.04774 4.18943 -320.328) (63.1238 63.6656 -781.342) (-229.872 -65.7788 -1791.32)
250           (-762.884 536.955 19431.2) (95.4598 -76.1583 22956.2) (-73.4401 87.4425 30429.7) (166.593 -502.296 11492.4) (184.903 179.297 7857.78) (79.8775 29.023 1707.93) (45.7342 12.4174 559.618) (5.39656 -14.2158 86.0035) (-7.02636 4.18943 -336.151) (64.7965 52.8792 -818.617) (-255.403 -69.6257 -1685.27)
300           (-731.971 556.317 17756.2) (-40.5662 -60.1757 21291.7) (-138.1 274.684 29225.7) (194.052 -480.312 12125) (195.137 228.093 10170.9) (109.85 43.1646 2466.71) (67.4884 20.2166 866.028) (7.67335 -25.751 197.911) (-6.63169 3.99968 -340.578) (65.5547 41.7574 -846.192) (-272.348 -70.8304 -1582.38)
350           (-707.406 570.512 16457.5) (-145.426 -46.8239 19965) (-177.284 403.702 27918.3) (208.269 -450.75 12074.8) (178.993 261.992 11983.1) (139.092 61.2439 3358.35) (95.3139 31.4545 1285.91) (10.8518 -41.5703 361.467) (-5.73629 3.56264 -328.883) (65.3382 30.6467 -861.742) (-281.813 -69.9659 -1484.03)
400           (-687.32 581.358 15412.1) (-229.411 -35.5773 18877.5) (-205.146 501.618 26696.3) (218.347 -419.581 11759.4) (149.988 278.288 13064.9) (160.371 83.0688 4293.27) (128.564 46.9744 1838.82) (15.1394 -62.4432 590.495) (-4.17707 2.81921 -295.222) (64.1283 19.9016 -863.163) (-285.156 -67.7183 -1389.99)
450           (-670.522 589.98 14545.8) (-298.803 -25.9735 17964.6) (-226.874 580.013 25594.5) (226.936 -389.923 11370.1) (118.912 284.087 13523) (166.87 109.469 5141.77) (164.882 66.7895 2531.34) (20.7464 -88.6971 898.534) (-1.8006 1.71922 -232.953) (61.9346 9.83796 -848.503) (-283.512 -64.5578 -1298.79)
500           (-656.068 597.207 13811.7) (-357.4 -17.6587 17184.2) (-244.776 644.662 24607) (234.18 -363.134 10972) (88.8711 286.715 13591) (157.202 140.572 5794.26) (200.322 89.1774 3342.77) (27.7675 -119.946 1295.39) (1.55267 0.216821 -134.349) (58.7318 0.848986 -815.264) (-277.488 -60.648 -1207.84)
550           (-643.555 603.259 13178.2) (-407.898 -10.3686 16505.7) (-259.804 699.555 23720.8) (240.485 -338.761 10586.3) (60.4997 288.547 13452.6) (137.118 172.668 6216.37) (230.104 110.351 4213.41) (36.2189 -154.514 1784.7) (6.02117 -1.68107 9.14218) (54.444 -6.98652 -760.68) (-267.446 -56.0595 -1113.87)
600           (-632.53 608.465 12623.3) (-452.066 -3.90044 15907.9) (-272.73 747.005 22920.5) (245.996 -316.643 10220.2) (34.2999 289.913 13212.3) (115.097 200.169 6445.84) (251.304 126.325 5054.54) (45.8998 -189.158 2355.78) (11.6833 -3.92238 205.944) (48.931 -13.5968 -681.2) (-253.248 -50.6527 -1012.87)
650           (-622.699 613.015 12130.9) (-491.214 1.9 15374.7) (-284.036 788.666 22193) (250.881 -296.463 9875.49) (10.3019 290.826 12923.1) (96.0864 221.065 6544.55) (264.018 134.958 5780.66) (56.4913 -219.259 2980.18) (18.5163 -6.38899 462.959) (41.9948 -19.1678 -572.772) (-234.501 -44.2203 -900.2)
700           (-613.84 617.046 11688.9) (-526.312 7.15119 14894.3) (-294.065 825.733 21527.1) (255.262 -277.942 9551.61) (-11.7217 291.369 12611.7) (80.9472 236.5 6563.03) (270.423 136.76 6343.9) (67.6301 -239.938 3612.47) (26.3739 -8.9169 783.366) (33.4032 -24.1763 -431.156) (-210.617 -36.5117 -770.725)
750           (-605.783 620.655 11288.4) (-558.093 11.9459 14457.3) (-303.065 859.086 20913.5) (259.225 -260.838 9246.98) (-32.0539 291.633 12291.7) (68.8888 248.231 6532.81) (272.905 133.96 6742.99) (78.8763 -247.729 4200.25) (34.9961 -11.3517 1163.9) (22.9328 -29.467 -252.637) (-180.964 -27.278 -619.079)
800           (-598.419 623.9 10922.3) (-587.144 16.3596 14056.5) (-311.2 889.46 20344.7) (262.881 -244.864 8959.42) (-50.9891 291.652 11969.6) (58.9683 257.599 6471.98) (273.14 128.889 7006.18) (89.5262 -241.904 4700.55) (44.0831 -13.6115 1592.46) (10.4318 -36.3901 -35.238) (-145.117 -16.359 -440.162)
850           (-591.583 626.884 10584.6) (-613.901 20.453 13685.9) (-318.67 917.247 19813.3) (266.214 -230.003 8687.3) (-68.6804 291.557 11650) (50.5931 265.242 6390.77) (272.33 123.188 7170.1) (98.9888 -224.937 5093.92) (53.3191 -15.7722 2047.24) (-4.10186 -46.4521 219.927) (-102.876 -3.61805 -229.852)
900           (-585.215 629.632 10270.9) (-638.749 24.276 13340.6) (-325.568 942.944 19314) (269.308 -216.023 8428.66) (-85.34 291.347 11335) (43.2738 271.721 6296.64) (270.955 117.482 7266.78) (106.997 -200.608 5385.25) (62.5353 -17.9676 2501.43) (-20.4714 -61.4873 507.463) (-54.8147 10.8125 13.8624)
950           (-579.248 632.184 9977.41) (-661.978 27.8668 13017) (-331.986 966.888 18842.9) (272.198 -202.818 8182.36) (-101.094 291.059 11027) (36.7048 277.37 6195.41) (269.287 111.955 7320.72) (113.904 -172.576 5594.71) (71.5892 -20.3054 2929.91) (-38.2878 -82.8714 817.785) (-2.12615 26.6426 290.184)
1000          (-573.63 634.569 9701.6) (-683.803 31.2523 12712.3) (-337.997 989.333 18397.2) (274.913 -190.317 7947.93) (-116.019 290.729 10728.9) (30.6888 282.43 6091.92) (267.494 106.649 7349.28) (120.233 -143.449 5745.92) (80.3057 -22.7509 3316.26) (-57.0257 -111.071 1138.53) (53.4315 43.4275 595.071)
1050          (-568.329 636.812 9441.58) (-704.375 34.4494 12424.9) (-343.65 1010.46 17975.6) (277.47 -178.487 7725.41) (-130.149 290.389 10443.4) (25.1082 287.067 5990.06) (265.704 101.598 7364.12) (126.3 -114.781 5858.79) (88.486 -25.1466 3655.01) (-76.1052 -145.38 1457.02) (109.815 60.6404 921.427)
1100          (-563.328 638.926 9196.28) (-723.782 37.4664 12153.7) (-348.979 1030.39 17577.6) (279.882 -167.319 7515.2) (-143.487 290.063 10173.1) (19.8992 291.386 5892.67) (264.012 96.8474 7372.72) (132.182 -87.4179 5947.62) (95.9826 -27.3288 3949.05) (-94.968 -184.094 1762.65) (165.057 77.7599 1259.95)
1150          (-558.62 640.921 8965.2) (-742.064 40.3059 11898.4) (-354.002 1049.17 17203.3) (282.155 -156.818 7317.82) (-156.022 289.77 9919.86) (15.0307 295.45 5801.73) (262.48 92.4397 7379.64) (137.833 -61.8089 6021.93) (102.747 -29.2154 4205.29) (-113.136 -225.023 2048.29) (217.567 94.3403 1600.42)
1200          (-554.203 642.802 8748.21) (-759.235 42.9671 11658.9) (-358.725 1066.82 16853.2) (284.29 -146.997 7133.72) (-167.737 289.52 9685.08) (10.4893 299.293 5718.4) (261.142 88.4039 7387.53) (143.188 -38.1882 6087.72) (108.813 -30.8107 4430.99) (-130.25 -266.057 2310.35) (266.292 110.047 1933.14)
1250          (-550.081 644.569 8545.38) (-775.289 45.448 11435.3) (-363.15 1083.35 16527.7) (286.287 -137.868 6963.24) (-178.615 289.318 9469.51) (6.26963 302.926 5643.28) (260.011 84.7534 7397.77) (148.197 -16.6645 6148.58) (114.252 -32.1627 4632.11) (-146.078 -305.532 2547.88) (310.703 124.661 2250)
1300          (-546.242 646.251 8357.04) (-790.2 47.7424 11227.9) (-367.28 1098.74 16227.1) (288.107 -129.478 6806.6) (-188.637 289.18 9273.1) (2.36416 306.303 5576.19) (259.102 81.5374 7410.66) (152.836 2.69319 6206.4) (119.117 -33.3321 4812.82) (-160.493 -342.142 2761.74) (350.789 138.108 2545.19)
1350          (-542.717 647.784 8182.93) (-803.989 49.8584 11036.7) (-371.098 1112.98 15951.2) (289.827 -121.744 6663.57) (-197.829 289.071 9096.08) (-1.21878 309.519 5517.49) (258.362 78.637 7426.37) (157.087 20.035 6262.06) (123.512 -34.349 4976.02) (-173.508 -375.725 2952.94) (386.467 150.244 2815.24)
1400          (-539.488 649.202 8023.08) (-816.653 51.7939 10861.5) (-374.614 1126.09 15699.8) (291.409 -114.698 6533.95) (-206.192 289.004 8937.64) (-4.48853 312.517 5466.48) (257.793 76.089 7444.35) (160.955 35.3969 6315.72) (127.462 -35.2497 5123.46) (-185.141 -405.835 3123.29) (418.117 161.13 3058.68)
1450          (-536.566 650.451 7877.48) (-828.217 53.5396 10702.1) (-377.832 1138.07 15472.1) (292.856 -108.329 6417.31) (-213.753 288.973 8796.62) (-7.44772 315.275 5422.22) (257.381 73.8581 7464.01) (164.471 48.9147 6367.04) (130.997 -36.0567 5256.31) (-195.497 -432.5 3274.64) (446.111 170.843 3275.68)
1500          (-533.907 651.645 7745.46) (-838.68 55.1278 10557.9) (-380.753 1148.93 15267.3) (294.165 -102.594 6312.91) (-220.542 288.969 8672.03) (-10.1196 317.824 5384.54) (257.079 71.9307 7484.4) (167.605 60.7453 6415.77) (134.16 -36.7739 5375.76) (-204.616 -455.941 3408.32) (470.72 179.402 3467.47)
1550          (-531.517 652.727 7626.52) (-848.108 56.5537 10428.3) (-383.391 1158.74 15084.1) (295.345 -97.4666 6220.03) (-226.605 288.987 8562.52) (-12.5115 320.149 5352.47) (256.877 70.2646 7505.02) (170.4 71.0496 6461.48) (136.974 -37.4141 5482.6) (-212.628 -476.404 3526.05) (492.309 186.925 3635.86)
1600          (-529.389 653.73 7520.08) (-856.532 57.8434 10312.5) (-385.745 1167.56 14921.2) (296.432 -92.8559 6137.78) (-231.998 289.001 8466.64) (-14.6498 322.299 5325.16) (256.714 68.8332 7525.37) (172.852 80.0309 6503.82) (139.482 -37.9809 5577.65) (-219.655 -494.312 3629.44) (511.082 193.449 3783)
1650          (-527.49 654.597 7425.29) (-864.051 58.9711 10209.5) (-387.859 1175.4 14776.9) (297.371 -88.8248 6065.32) (-236.761 289.046 8382.95) (-16.5359 324.183 5302.07) (256.649 67.6005 7544.79) (175.046 87.7699 6542.71) (141.68 -38.4867 5661.91) (-225.778 -509.712 3719.91) (527.586 199.203 3911.1)
1700          (-525.809 655.37 7341.25) (-870.719 59.9679 10118.3) (-389.736 1182.36 14649.7) (298.204 -85.2727 6001.71) (-240.955 289.098 8310.18) (-18.1982 325.866 5282.56) (256.627 66.5428 7563.07) (176.977 94.4575 6578.04) (143.612 -38.9338 5736.24) (-231.109 -523.027 3798.85) (541.956 204.208 4022.31)
1750          (-524.327 656.055 7267.08) (-876.605 60.8454 10037.9) (-391.396 1188.51 14538) (298.939 -82.1539 5946.06) (-244.634 289.153 8247.04) (-19.658 327.362 5266.06) (256.633 65.6366 7580.02) (178.67 100.227 6609.87) (145.305 -39.3274 5801.56) (-235.739 -534.521 3867.58) (554.443 208.552 4118.66)
1800          (-523.027 656.66 7201.89) (-881.779 61.615 9967.35) (-392.857 1193.92 14440.2) (299.586 -79.4245 5897.5) (-247.852 289.208 8192.35) (-20.9357 328.683 5252.1) (256.659 64.8605 7595.54) (180.149 105.199 6638.32) (146.783 -39.6726 5858.77) (-239.755 -544.433 3927.29) (565.276 212.316 4202)
1850          (-521.889 657.191 7144.79) (-886.312 62.2879 9905.6) (-394.139 1198.66 14354.9) (300.153 -77.0428 5855.24) (-250.659 289.261 8145.06) (-22.0507 329.846 5240.28) (256.696 64.1959 7609.58) (181.439 109.481 6663.59) (148.071 -39.9744 5908.71) (-243.231 -552.972 3979.07) (574.659 215.573 4274)
1900          (-520.896 657.656 7094.92) (-890.271 62.8746 9851.71) (-395.26 1202.8 14280.6) (300.649 -74.9696 5818.54) (-253.101 289.312 8104.21) (-23.0213 330.866 5230.25) (256.739 63.6268 7622.17) (182.56 113.165 6685.92) (149.191 -40.2376 5952.2) (-246.237 -560.325 4023.91) (582.776 218.387 4336.13)
1950          (-520.011 658.125 7051.49) (-893.711 63.378 9804.78) (-396.249 1206.39 14216) (301.053 -73.1998 5786.77) (-255.218 289.371 8068.97) (-23.8715 331.722 5221.59) (256.798 63.1559 7633.34) (183.546 116.336 6705.55) (150.157 -40.4672 5989.96) (-248.833 -566.543 4062.75) (589.863 220.844 4389.69)
2000          (-519.263 658.469 7013.75) (-896.709 63.8221 9764.05) (-397.097 1209.53 14160) (301.432 -71.6362 5759.22) (-257.056 289.412 8038.58) (-24.6024 332.5 5214.36) (256.841 62.7318 7643.26) (184.386 119.06 6722.74) (151 -40.6656 6022.74) (-251.069 -571.996 4096.24) (595.912 222.938 4435.86)
2050          (-518.615 658.769 6980.99) (-899.311 64.2068 9728.73) (-397.833 1212.26 14111.6) (301.76 -70.2808 5735.42) (-258.647 289.449 8012.41) (-25.2341 333.18 5208.22) (256.883 62.3724 7652) (185.114 121.403 6737.76) (151.729 -40.8378 6051.13) (-253.001 -576.691 4125.14) (601.124 224.74 4475.61)
2100          (-518.053 659.03 6952.63) (-901.565 64.5397 9698.16) (-398.472 1214.63 14069.7) (302.045 -69.1089 5714.86) (-260.021 289.482 7989.88) (-25.7801 333.77 5202.98) (256.923 62.0646 7659.66) (185.743 123.417 6750.83) (152.358 -40.9868 6075.67) (-254.666 -580.728 4150.05) (605.616 226.292 4509.83)
2150          (-517.568 659.256 6928.09) (-903.514 64.8274 9671.72) (-399.024 1216.67 14033.5) (302.292 -68.0968 5697.12) (-261.208 289.511 7970.5) (-26.2515 334.281 5198.53) (256.96 61.8009 7666.36) (186.286 125.146 6762.18) (152.901 -41.1156 6096.86) (-256.099 -584.197 4171.52) (609.484 227.627 4539.27)
2200          (-517.149 659.451 6906.89) (-905.199 65.0759 9648.89) (-399.501 1218.44 14002.3) (302.504 -67.2237 5681.84) (-262.232 289.537 7953.83) (-26.6582 334.723 5194.72) (256.993 61.5749 7672.2) (186.754 126.632 6772.03) (153.369 -41.2268 6115.15) (-257.333 -587.177 4190) (612.813 228.777 4564.58)
2250          (-516.787 659.62 6888.6) (-906.652 65.2901 9629.2) (-399.913 1219.97 13975.4) (302.688 -66.471 5668.67) (-263.115 289.56 7939.5) (-27.0087 335.104 5191.48) (257.023 61.3811 7677.27) (187.158 127.908 6780.55) (153.773 -41.3227 6130.92) (-258.394 -589.738 4205.9) (615.677 229.765 4586.34)
2300          (-516.475 659.765 6872.82) (-907.906 65.4748 9612.22) (-400.269 1221.28 13952.2) (302.847 -65.8226 5657.34) (-263.875 289.581 7927.19) (-27.3106 335.434 5188.7) (257.05 61.2149 7681.67) (187.505 129.004 6787.92) (154.12 -41.4053 6144.5) (-259.307 -591.937 4219.59) (618.141 230.615 4605.05)
2350          (-516.207 659.887 6859.26) (-908.991 65.6334 9597.61) (-400.58 1222.4 13932.3) (302.986 -65.2684 5647.57) (-264.531 289.594 7916.58) (-27.5667 335.717 5186.36) (257.085 61.0612 7685.51) (187.809 129.927 6794.27) (154.417 -41.4786 6156.21) (-260.085 -593.851 4231.34) (620.25 231.348 4621.12)
2400          (-515.975 660.011 6847.58) (-909.916 65.7712 9584.98) (-400.845 1223.37 13915.3) (303.099 -64.798 5639.15) (-265.084 289.621 7907.62) (-27.7864 335.952 5184.26) (257.115 60.9444 7688.82) (188.071 130.728 6799.7) (154.674 -41.5432 6166.27) (-260.755 -595.444 4241.43) (622.086 231.985 4634.91)
2450          (-515.774 660.124 6837.55) (-910.7 65.895 9574.12) (-401.075 1224.19 13900.6) (303.196 -64.3814 5631.92) (-265.563 289.633 7899.91) (-27.9979 336.156 5182.43) (257.137 60.8503 7691.67) (188.282 131.419 6804.37) (154.905 -41.599 6174.88) (-261.303 -596.806 4250.13) (623.607 232.492 4646.74)
2500          (-515.609 660.182 6828.91) (-911.394 65.9869 9564.88) (-401.253 1224.93 13887.9) (303.287 -64.0179 5625.77) (-265.978 289.634 7893.15) (-28.1482 336.35 5181.01) (257.133 60.7557 7694.06) (188.47 132.019 6808.47) (155.095 -41.6363 6182.29) (-261.833 -598.025 4257.56) (624.986 232.962 4656.91)
2550          (-515.478 660.237 6821.56) (-912.008 66.0751 9556.84) (-401.434 1225.61 13877.3) (303.353 -63.708 5620.37) (-266.344 289.657 7887.55) (-28.3267 336.509 5179.64) (257.144 60.6899 7696.37) (188.638 132.578 6811.82) (155.252 -41.6685 6188.74) (-262.234 -599.105 4263.91) (626.074 233.35 4665.62)
2600          (-515.337 660.299 6815.32) (-912.473 66.1472 9550.27) (-401.564 1226.07 13867.9) (303.418 -63.4698 5616.06) (-266.632 289.656 7882.55) (-28.4079 336.627 5178.67) (257.163 60.62 7697.86) (188.762 132.948 6814.87) (155.389 -41.7072 6193.96) (-262.614 -599.877 4269.31) (627.106 233.7 4672.94)
2650          (-515.241 660.349 6809.98) (-912.907 66.2206 9544.6) (-401.701 1226.54 13860) (303.496 -63.2174 5612.18) (-266.92 289.639 7878.21) (-28.5323 336.773 5177.79) (257.159 60.5334 7699.5) (188.892 133.361 6817.37) (155.509 -41.7343 6198.64) (-262.906 -600.77 4273.96) (627.821 233.954 4679.33)
2700          (-515.142 660.397 6805.25) (-913.277 66.2647 9539.5) (-401.799 1226.9 13853) (303.536 -63.0463 5608.84) (-267.131 289.664 7874.62) (-28.5981 336.85 5176.92) (257.182 60.4819 7700.7) (189.003 133.663 6819.59) (155.608 -41.7673 6202.64) (-263.201 -601.343 4278.03) (628.649 234.241 4684.88)
2750          (-515.051 660.455 6801.27) (-913.595 66.3119 9535.22) (-401.911 1227.22 13847.2) (303.559 -62.9063 5606.04) (-267.33 289.669 7871.44) (-28.6862 336.913 5176.27) (257.21 60.4456 7701.84) (189.104 133.916 6821.51) (155.683 -41.7896 6206.05) (-263.404 -601.85 4281.5) (629.253 234.463 4689.54)
2800          (-514.986 660.516 6797.88) (-913.866 66.3442 9531.49) (-401.958 1227.53 13842.2) (303.592 -62.744 5603.57) (-267.494 289.676 7868.86) (-28.7781 336.994 5175.6) (257.173 60.4133 7702.78) (189.125 134.173 6823.03) (155.763 -41.8087 6208.9) (-263.618 -602.335 4284.47) (629.812 234.625 4693.54)
2850          (-514.93 660.542 6795.1) (-914.089 66.3768 9528.58) (-402.033 1227.78 13838.1) (303.625 -62.6247 5601.6) (-267.629 289.672 7866.7) (-28.8204 337.063 5175.17) (257.176 60.395 7703.59) (189.23 134.425 6824.36) (155.826 -41.807 6211.33) (-263.805 -602.763 4286.82) (630.234 234.78 4696.83)
2900          (-514.89 660.518 6792.5) (-914.302 66.4052 9525.73) (-402.078 1228.02 13834.3) (303.646 -62.5131 5599.72) (-267.747 289.678 7864.73) (-28.8725 337.118 5174.66) (257.172 60.3744 7704.33) (189.27 134.579 6825.56) (155.886 -41.8244 6213.57) (-263.943 -603.092 4289.08) (630.644 234.912 4699.89)
2950          (-514.838 660.554 6790.41) (-914.454 66.4429 9523.48) (-402.154 1228.13 13831.3) (303.663 -62.4675 5598.21) (-267.841 289.7 7863.17) (-28.8948 337.132 5174.29) (257.235 60.3522 7704.96) (189.337 134.672 6826.5) (155.928 -41.8448 6215.44) (-264.023 -603.319 4290.83) (630.951 235.052 4702.35)
3000          (-514.816 660.544 6788.53) (-914.617 66.4563 9521.5) (-402.166 1228.35 13828.5) (303.701 -62.3477 5596.87) (-267.939 289.69 7861.66) (-28.9372 337.21 5174.02) (257.187 60.3196 7705.45) (189.356 134.853 6827.42) (155.971 -41.8484 6216.98) (-264.175 -603.672 4292.48) (631.239 235.131 4704.56)
3050          (-514.768 660.626 6787.07) (-914.713 66.4832 9519.87) (-402.204 1228.46 13826.4) (303.701 -62.2971 5595.79) (-268.006 289.684 7860.53) (-28.9735 337.226 5173.74) (257.194 60.3151 7705.91) (189.39 134.958 6828.19) (156.004 -41.8488 6218.21) (-264.238 -603.868 4293.79) (631.497 235.214 4706.31)
3100          (-514.776 660.51 6785.77) (-914.857 66.4842 9518.53) (-402.229 1228.62 13824.4) (303.73 -62.2263 5594.88) (-268.07 289.697 7859.48) (-28.9908 337.275 5173.55) (257.2 60.3099 7706.28) (189.437 135.056 6828.72) (156.021 -41.8643 6219.39) (-264.34 -604.084 4294.87) (631.642 235.274 4707.84)
3150          (-514.734 660.591 6784.67) (-914.913 66.506 9517.34) (-402.258 1228.67 13822.8) (303.731 -62.1942 5594.11) (-268.121 289.694 7858.62) (-29.0092 337.285 5173.32) (257.194 60.2983 7706.5) (189.44 135.116 6829.24) (156.058 -41.8654 6220.3) (-264.397 -604.172 4295.84) (631.856 235.342 4709.15)
3200          (-514.722 660.555 6783.72) (-914.994 66.5197 9516.35) (-402.289 1228.73 13821.4) (303.747 -62.167 5593.43) (-268.164 289.694 7857.86) (-29.0059 337.301 5173.24) (257.223 60.282 7706.78) (189.473 135.141 6829.74) (156.088 -41.8701 6221.16) (-264.44 -604.309 4296.61) (631.99 235.4 4710.27)
3250          (-514.703 660.61 6782.79) (-915.082 66.5234 9515.3) (-402.317 1228.84 13820.1) (303.752 -62.1158 5592.73) (-268.228 289.693 7857.15) (-29.0663 337.327 5173) (257.2 60.258 7707.14) (189.506 135.272 6830.11) (156.099 -41.875 6221.97) (-264.491 -604.495 4297.45) (632.107 235.434 4711.36)
3300          (-514.681 660.618 6782.11) (-915.115 66.5323 9514.56) (-402.321 1228.87 13819) (303.75 -62.1044 5592.3) (-268.245 289.703 7856.65) (-29.0644 337.324 5172.86) (257.208 60.265 7707.16) (189.504 135.269 6830.47) (156.116 -41.8846 6222.48) (-264.529 -604.489 4298.04) (632.273 235.478 4712.12)
3350          (-514.682 660.584 6781.48) (-915.176 66.5401 9513.88) (-402.33 1228.93 13818.1) (303.769 -62.0728 5591.79) (-268.278 289.711 7856.18) (-29.0738 337.342 5172.75) (257.216 60.2392 7707.37) (189.507 135.3 6830.7) (156.13 -41.8957 6223.03) (-264.562 -604.606 4298.62) (632.361 235.514 4712.89)
3400          (-514.657 660.628 6780.98) (-915.207 66.5559 9513.42) (-402.353 1228.96 13817.4) (303.77 -62.0402 5591.46) (-268.299 289.683 7855.7) (-29.0589 337.371 5172.76) (257.212 60.2676 7707.63) (189.545 135.37 6831.06) (156.149 -41.8708 6223.54) (-264.61 -604.695 4299.01) (632.426 235.541 4713.52)
3450          (-514.656 660.611 6780.56) (-915.249 66.5556 9512.92) (-402.372 1228.98 13816.8) (303.777 -62.0384 5591.14) (-268.327 289.697 7855.37) (-29.08 337.365 5172.66) (257.234 60.2308 7707.71) (189.555 135.372 6831.21) (156.149 -41.8931 6223.91) (-264.608 -604.759 4299.38) (632.457 235.567 4714.03)
3500          (-514.656 660.577 6780.16) (-915.281 66.561 9512.45) (-402.348 1229.06 13816.2) (303.781 -62.0147 5590.83) (-268.334 289.713 7855.15) (-29.1045 337.368 5172.46) (257.219 60.2313 7707.78) (189.521 135.409 6831.26) (156.143 -41.9032 6224.12) (-264.622 -604.786 4299.86) (632.546 235.587 4714.51)
3550          (-514.64 660.64 6779.93) (-915.298 66.5618 9512.24) (-402.379 1229.06 13815.8) (303.782 -62.0017 5590.67) (-268.361 289.695 7854.89) (-29.1094 337.385 5172.5) (257.211 60.2296 7707.88) (189.56 135.461 6831.44) (156.161 -41.8914 6224.42) (-264.659 -604.876 4299.96) (632.557 235.594 4714.81)
3600          (-514.636 660.643 6779.79) (-915.302 66.5661 9512.08) (-402.381 1229.06 13815.6) (303.782 -62.0005 5590.57) (-268.363 289.696 7854.77) (-29.1041 337.384 5172.47) (257.217 60.231 7707.89) (189.558 135.449 6831.51) (156.167 -41.8934 6224.53) (-264.663 -604.872 4300.09) (632.595 235.605 4714.99)
3650          (-514.632 660.646 6779.52) (-915.327 66.5696 9511.8) (-402.38 1229.1 13815.2) (303.788 -61.9773 5590.35) (-268.377 289.695 7854.53) (-29.1115 337.4 5172.4) (257.203 60.2321 7707.96) (189.556 135.486 6831.61) (156.174 -41.8905 6224.78) (-264.696 -604.942 4300.35) (632.647 235.617 4715.36)
3700          (-514.619 660.675 6779.38) (-915.327 66.5715 9511.63) (-402.391 1229.09 13815) (303.782 -61.9874 5590.26) (-268.384 289.698 7854.4) (-29.1149 337.39 5172.36) (257.211 60.2233 7707.94) (189.567 135.491 6831.67) (156.171 -41.8977 6224.88) (-264.687 -604.922 4300.49) (632.668 235.636 4715.57)
3750          (-514.627 660.658 6779.26) (-915.355 66.5745 9511.53) (-402.392 1229.12 13814.9) (303.797 -61.959 5590.13) (-268.398 289.69 7854.28) (-29.1207 337.414 5172.36) (257.207 60.2249 7708.09) (189.568 135.513 6831.71) (156.182 -41.8891 6225.06) (-264.715 -605.047 4300.59) (632.67 235.626 4715.72)
3800          (-514.627 660.658 6779.26) (-915.355 66.5745 9511.53) (-402.392 1229.12 13814.9) (303.797 -61.959 5590.13) (-268.398 289.69 7854.28) (-29.1207 337.414 5172.36) (257.207 60.2249 7708.09) (189.568 135.513 6831.71) (156.182 -41.8891 6225.06) (-264.715 -605.047 4300.59) (632.67 235.626 4715.72)
3850          (-514.627 660.658 6779.26) (-915.355 66.5745 9511.53) (-402.392 1229.12 13814.9) (303.797 -61.959 5590.13) (-268.398 289.69 7854.28) (-29.1207 337.414 5172.36) (257.207 60.2249 7708.09) (189.568 135.513 6831.71) (156.182 -41.8891 6225.06) (-264.715 -605.047 4300.59) (632.67 235.626 4715.72)
3900          (-514.627 660.658 6779.26) (-915.355 66.5745 9511.53) (-402.392 1229.12 13814.9) (303.797 -61.959 5590.13) (-268.398 289.69 7854.28) (-29.1207 337.414 5172.36) (257.207 60.2249 7708.09) (189.568 135.513 6831.71) (156.182 -41.8891 6225.06) (-264.715 -605.047 4300.59) (632.67 235.626 4715.72)
3950          (-514.627 660.658 6779.26) (-915.355 66.5745 9511.53) (-402.392 1229.12 13814.9) (303.797 -61.959 5590.13) (-268.398 289.69 7854.28) (-29.1207 337.414 5172.36) (257.207 60.2249 7708.09) (189.568 135.513 6831.71) (156.182 -41.8891 6225.06) (-264.715 -605.047 4300.59) (632.67 235.626 4715.72)
4000          (-514.627 660.658 6779.26) (-915.355 66.5745 9511.53) (-402.392 1229.12 13814.9) (303.797 -61.959 5590.13) (-268.398 289.69 7854.28) (-29.1207 337.414 5172.36) (257.207 60.2249 7708.09) (189.568 135.513 6831.71) (156.182 -41.8891 6225.06) (-264.715 -605.047 4300.59) (632.67 235.626 4715.72)
4050          (-514.627 660.658 6779.26) (-915.355 66.5745 9511.53) (-402.392 1229.12 13814.9) (303.797 -61.959 5590.13) (-268.398 289.69 7854.28) (-29.1207 337.414 5172.36) (257.207 60.2249 7708.09) (189.568 135.513 6831.71) (156.182 -41.8891 6225.06) (-264.715 -605.047 4300.59) (632.67 235.626 4715.72)
4100          (-514.627 660.658 6779.26) (-915.355 66.5745 9511.53) (-402.392 1229.12 13814.9) (303.797 -61.959 5590.13) (-268.398 289.69 7854.28) (-29.1207 337.414 5172.36) (257.207 60.2249 7708.09) (189.568 135.513 6831.71) (156.182 -41.8891 6225.06) (-264.715 -605.047 4300.59) (632.67 235.626 4715.72)
4150          (-514.627 660.658 6779.26) (-915.355 66.5745 9511.53) (-402.392 1229.12 13814.9) (303.797 -61.959 5590.13) (-268.398 289.69 7854.28) (-29.1207 337.414 5172.36) (257.207 60.2249 7708.09) (189.568 135.513 6831.71) (156.182 -41.8891 6225.06) (-264.715 -605.047 4300.59) (632.67 235.626 4715.72)
4200          (-514.627 660.658 6779.26) (-915.355 66.5745 9511.53) (-402.392 1229.12 13814.9) (303.797 -61.959 5590.13) (-268.398 289.69 7854.28) (-29.1207 337.414 5172.36) (257.207 60.2249 7708.09) (189.568 135.513 6831.71) (156.182 -41.8891 6225.06) (-264.715 -605.047 4300.59) (632.67 235.626 4715.72)
4250          (-514.627 660.658 6779.26) (-915.355 66.5745 9511.53) (-402.392 1229.12 13814.9) (303.797 -61.959 5590.13) (-268.398 289.69 7854.28) (-29.1207 337.414 5172.36) (257.207 60.2249 7708.09) (189.568 135.513 6831.71) (156.182 -41.8891 6225.06) (-264.715 -605.047 4300.59) (632.67 235.626 4715.72)
4300          (-514.627 660.658 6779.26) (-915.355 66.5745 9511.53) (-402.392 1229.12 13814.9) (303.797 -61.959 5590.13) (-268.398 289.69 7854.28) (-29.1207 337.414 5172.36) (257.207 60.2249 7708.09) (189.568 135.513 6831.71) (156.182 -41.8891 6225.06) (-264.715 -605.047 4300.59) (632.67 235.626 4715.72)
4350          (-514.627 660.658 6779.26) (-915.355 66.5745 9511.53) (-402.392 1229.12 13814.9) (303.797 -61.959 5590.13) (-268.398 289.69 7854.28) (-29.1207 337.414 5172.36) (257.207 60.2249 7708.09) (189.568 135.513 6831.71) (156.182 -41.8891 6225.06) (-264.715 -605.047 4300.59) (632.67 235.626 4715.72)
4400          (-514.627 660.658 6779.26) (-915.355 66.5745 9511.53) (-402.392 1229.12 13814.9) (303.797 -61.959 5590.13) (-268.398 289.69 7854.28) (-29.1207 337.414 5172.36) (257.207 60.2249 7708.09) (189.568 135.513 6831.71) (156.182 -41.8891 6225.06) (-264.715 -605.047 4300.59) (632.67 235.626 4715.72)
4450          (-514.627 660.658 6779.26) (-915.355 66.5745 9511.53) (-402.392 1229.12 13814.9) (303.797 -61.959 5590.13) (-268.398 289.69 7854.28) (-29.1207 337.414 5172.36) (257.207 60.2249 7708.09) (189.568 135.513 6831.71) (156.182 -41.8891 6225.06) (-264.715 -605.047 4300.59) (632.67 235.626 4715.72)
4500          (-514.627 660.658 6779.26) (-915.355 66.5745 9511.53) (-402.392 1229.12 13814.9) (303.797 -61.959 5590.13) (-268.398 289.69 7854.28) (-29.1207 337.414 5172.36) (257.207 60.2249 7708.09) (189.568 135.513 6831.71) (156.182 -41.8891 6225.06) (-264.715 -605.047 4300.59) (632.67 235.626 4715.72)
4550          (-514.627 660.658 6779.26) (-915.355 66.5745 9511.53) (-402.392 1229.12 13814.9) (303.797 -61.959 5590.13) (-268.398 289.69 7854.28) (-29.1207 337.414 5172.36) (257.207 60.2249 7708.09) (189.568 135.513 6831.71) (156.182 -41.8891 6225.06) (-264.715 -605.047 4300.59) (632.67 235.626 4715.72)
4600          (-514.627 660.658 6779.26) (-915.355 66.5745 9511.53) (-402.392 1229.12 13814.9) (303.797 -61.959 5590.13) (-268.398 289.69 7854.28) (-29.1207 337.414 5172.36) (257.207 60.2249 7708.09) (189.568 135.513 6831.71) (156.182 -41.8891 6225.06) (-264.715 -605.047 4300.59) (632.67 235.626 4715.72)
4650          (-514.627 660.658 6779.26) (-915.355 66.5745 9511.53) (-402.392 1229.12 13814.9) (303.797 -61.959 5590.13) (-268.398 289.69 7854.28) (-29.1207 337.414 5172.36) (257.207 60.2249 7708.09) (189.568 135.513 6831.71) (156.182 -41.8891 6225.06) (-264.715 -605.047 4300.59) (632.67 235.626 4715.72)
4700          (-514.627 660.658 6779.26) (-915.355 66.5745 9511.53) (-402.392 1229.12 13814.9) (303.797 -61.959 5590.13) (-268.398 289.69 7854.28) (-29.1207 337.414 5172.36) (257.207 60.2249 7708.09) (189.568 135.513 6831.71) (156.182 -41.8891 6225.06) (-264.715 -605.047 4300.59) (632.67 235.626 4715.72)
4750          (-514.627 660.658 6779.26) (-915.355 66.5745 9511.53) (-402.392 1229.12 13814.9) (303.797 -61.959 5590.13) (-268.398 289.69 7854.28) (-29.1207 337.414 5172.36) (257.207 60.2249 7708.09) (189.568 135.513 6831.71) (156.182 -41.8891 6225.06) (-264.715 -605.047 4300.59) (632.67 235.626 4715.72)
4800          (-514.627 660.658 6779.26) (-915.355 66.5745 9511.53) (-402.392 1229.12 13814.9) (303.797 -61.959 5590.13) (-268.398 289.69 7854.28) (-29.1207 337.414 5172.36) (257.207 60.2249 7708.09) (189.568 135.513 6831.71) (156.182 -41.8891 6225.06) (-264.715 -605.047 4300.59) (632.67 235.626 4715.72)