# Probe 0 (0.0015 0.0015 0)
# Probe 1 (0.0015 0.0015 0.002)
# Probe 2 (0.0015 0.0015 0.004)
# Probe 3 (0.0015 0.0015 0.006)
# Probe 4 (0.0015 0.0015 0.008)
# Probe 5 (0.0015 0.0015 0.01)
# Probe 6 (0.0015 0.0015 0.012)
# Probe 7 (0.0015 0.0015 0.014)
# Probe 8 (0.0015 0.0015 0.016)
# Probe 9 (0.0015 0.0015 0.018)
# Probe 10 (0.0015 0.0015 0.02)
# Time        0             1             2             3             4             5             6             7             8             9             10           
50            0.000666664   0.000666664   0.000666664   0.000666664   0.000666664   0.000666664   0.000666664   0.000666664   0.000666664   0.000666664   0.000666664  
100           0.000666664   0.000666664   0.000666664   0.000666664   0.000666664   0.000666664   0.000666664   0.000666664   0.000666664   0.000666664   0.000666664  
150           0.000666664   0.000666664   0.000666664   0.000666664   0.000666664   0.000666664   0.000666664   0.000666664   0.000666664   0.000666664   0.000666664  
200           0.000666664   0.000666664   0.000666664   0.000666664   0.000666664   0.000666664   0.000666664   0.000666664   0.000666664   0.000666664   0.000666664  
250           0.000666664   0.000666664   0.000666664   0.000666664   0.000666664   0.000666664   0.000666664   0.000666664   0.000666664   0.000666664   0.000666664  
300           0.000666664   0.000666664   0.000666664   0.000666664   0.000666664   0.000666664   0.000666664   0.000666664   0.000666664   0.000666664   0.000666664  
350           0.000666664   0.000666664   0.000666664   0.000666664   0.000666664   0.000666664   0.000666664   0.000666664   0.000666664   0.000666664   0.000666664  
400           0.000666664   0.000666664   0.000666664   0.000666664   0.000666664   0.000666664   0.000666664   0.000666664   0.000666664   0.000666664   0.000666664  
450           0.000666664   0.000666664   0.000666664   0.000666664   0.000666664   0.000666664   0.000666664   0.000666664   0.000666664   0.000666664   0.000666664  
500           0.000666664   0.000666664   0.000666664   0.000666664   0.000666664   0.000666664   0.000666664   0.000666664   0.000666664   0.000666664   0.000666664  
550           0.000666664   0.000666664   0.000666664   0.000666664   0.000666664   0.000666664   0.000666664   0.000666664   0.000666664   0.000666664   0.000666664  
600           0.000666664   0.000666664   0.000666664   0.000666664   0.000666664   0.000666664   0.000666664   0.000666664   0.000666664   0.000666664   0.000666664  
650           0.000666664   0.000666664   0.000666664   0.000666664   0.000666664   0.000666664   0.000666664   0.000666664   0.000666664   0.000666664   0.000666664  
700           0.000666664   0.000666664   0.000666664   0.000666664   0.000666664   0.000666664   0.000666664   0.000666664   0.000666664   0.000666664   0.000666664  
750           0.000666664   0.000666664   0.000666664   0.000666664   0.000666664   0.000666664   0.000666664   0.000666664   0.000666664   0.000666664   0.000666664  
800           0.000666664   0.000666664   0.000666664   0.000666664   0.000666664   0.000666664   0.000666664   0.000666664   0.000666664   0.000666664   0.000666664  
850           0.000666664   0.000666664   0.000666664   0.000666664   0.000666664   0.000666664   0.000666664   0.000666664   0.000666664   0.000666664   0.000666664  
900           0.000666664   0.000666664   0.000666664   0.000666664   0.000666664   0.000666664   0.000666664   0.000666664   0.000666664   0.000666664   0.000666664  
950           0.000666664   0.000666664   0.000666664   0.000666664   0.000666664   0.000666664   0.000666664   0.000666664   0.000666664   0.000666664   0.000666664  
1000          0.000666664   0.000666664   0.000666664   0.000666664   0.000666664   0.000666664   0.000666664   0.000666664   0.000666664   0.000666664   0.000666664  
1050          0.000666664   0.000666664   0.000666664   0.000666664   0.000666664   0.000666664   0.000666664   0.000666664   0.000666664   0.000666664   0.000666664  
1100          0.000666664   0.000666664   0.000666664   0.000666664   0.000666664   0.000666664   0.000666664   0.000666664   0.000666664   0.000666664   0.000666664  
1150          0.000666664   0.000666664   0.000666664   0.000666664   0.000666664   0.000666664   0.000666664   0.000666664   0.000666664   0.000666664   0.000666664  
1200          0.000666664   0.000666664   0.000666664   0.000666664   0.000666664   0.000666664   0.000666664   0.000666664   0.000666664   0.000666664   0.000666664  
1250          0.000666664   0.000666664   0.000666664   0.000666664   0.000666664   0.000666664   0.000666664   0.000666664   0.000666664   0.000666664   0.000666664  
1300          0.000666664   0.000666664   0.000666664   0.000666664   0.000666664   0.000666664   0.000666664   0.000666664   0.000666664   0.000666664   0.000666664  
1350          0.000666664   0.000666664   0.000666664   0.000666664   0.000666664   0.000666664   0.000666664   0.000666664   0.000666664   0.000666664   0.000666664  
1400          0.000666664   0.000666664   0.000666664   0.000666664   0.000666664   0.000666664   0.000666664   0.000666664   0.000666664   0.000666664   0.000666664  
1450          0.000666664   0.000666664   0.000666664   0.000666664   0.000666664   0.000666664   0.000666664   0.000666664   0.000666664   0.000666664   0.000666664  
1500          0.000666664   0.000666664   0.000666664   0.000666664   0.000666664   0.000666664   0.000666664   0.000666664   0.000666664   0.000666664   0.000666664  
1550          0.000666664   0.000666664   0.000666664   0.000666664   0.000666664   0.000666664   0.000666664   0.000666664   0.000666664   0.000666664   0.000666664  
1600          0.000666664   0.000666664   0.000666664   0.000666664   0.000666664   0.000666664   0.000666664   0.000666664   0.000666664   0.000666664   0.000666664  
1650          0.000666664   0.000666664   0.000666664   0.000666664   0.000666664   0.000666664   0.000666664   0.000666664   0.000666664   0.000666664   0.000666664  
1700          0.000666664   0.000666664   0.000666664   0.000666664   0.000666664   0.000666664   0.000666664   0.000666664   0.000666664   0.000666664   0.000666664  
1750          0.000666664   0.000666664   0.000666664   0.000666664   0.000666664   0.000666664   0.000666664   0.000666664   0.000666664   0.000666664   0.000666664  
1800          0.000666664   0.000666664   0.000666664   0.000666664   0.000666664   0.000666664   0.000666664   0.000666664   0.000666664   0.000666664   0.000666664  
1850          0.000666664   0.000666664   0.000666664   0.000666664   0.000666664   0.000666664   0.000666664   0.000666664   0.000666664   0.000666664   0.000666664  
1900          0.000666664   0.000666664   0.000666664   0.000666664   0.000666664   0.000666664   0.000666664   0.000666664   0.000666664   0.000666664   0.000666664  
1950          0.000666664   0.000666664   0.000666664   0.000666664   0.000666664   0.000666664   0.000666664   0.000666664   0.000666664   0.000666664   0.000666664  
2000          0.000666664   0.000666664   0.000666664   0.000666664   0.000666664   0.000666664   0.000666664   0.000666664   0.000666664   0.000666664   0.000666664  
2050          0.000666664   0.000666664   0.000666664   0.000666664   0.000666664   0.000666664   0.000666664   0.000666664   0.000666664   0.000666664   0.000666664  
2100          0.000666664   0.000666664   0.000666664   0.000666664   0.000666664   0.000666664   0.000666664   0.000666664   0.000666664   0.000666664   0.000666664  
2150          0.000666664   0.000666664   0.000666664   0.000666664   0.000666664   0.000666664   0.000666664   0.000666664   0.000666664   0.000666664   0.000666664  
2200          0.000666664   0.000666664   0.000666664   0.000666664   0.000666664   0.000666664   0.000666664   0.000666664   0.000666664   0.000666664   0.000666664  
2250          0.000666664   0.000666664   0.000666664   0.000666664   0.000666664   0.000666664   0.000666664   0.000666664   0.000666664   0.000666664   0.000666664  
2300          0.000666664   0.000666664   0.000666664   0.000666664   0.000666664   0.000666664   0.000666664   0.000666664   0.000666664   0.000666664   0.000666664  
2350          0.000666664   0.000666664   0.000666664   0.000666664   0.000666664   0.000666664   0.000666664   0.000666664   0.000666664   0.000666664   0.000666664  
2400          0.000666664   0.000666664   0.000666664   0.000666664   0.000666664   0.000666664   0.000666664   0.000666664   0.000666664   0.000666664   0.000666664  
2450          0.000666664   0.000666664   0.000666664   0.000666664   0.000666664   0.000666664   0.000666664   0.000666664   0.000666664   0.000666664   0.000666664  
2500          0.000666664   0.000666664   0.000666664   0.000666664   0.000666664   0.000666664   0.000666664   0.000666664   0.000666664   0.000666664   0.000666664  
2550          0.000666664   0.000666664   0.000666664   0.000666664   0.000666664   0.000666664   0.000666664   0.000666664   0.000666664   0.000666664   0.000666664  
2600          0.000666664   0.000666664   0.000666664   0.000666664   0.000666664   0.000666664   0.000666664   0.000666664   0.000666664   0.000666664   0.000666664  
2650          0.000666664   0.000666664   0.000666664   0.000666664   0.000666664   0.000666664   0.000666664   0.000666664   0.000666664   0.000666664   0.000666664  
2700          0.000666664   0.000666664   0.000666664   0.000666664   0.000666664   0.000666664   0.000666664   0.000666664   0.000666664   0.000666664   0.000666664  
2750          0.000666664   0.000666664   0.000666664   0.000666664   0.000666664   0.000666664   0.000666664   0.000666664   0.000666664   0.000666664   0.000666664  
2800          0.000666664   0.000666664   0.000666664   0.000666664   0.000666664   0.000666664   0.000666664   0.000666664   0.000666664   0.000666664   0.000666664  
2850          0.000666664   0.000666664   0.000666664   0.000666664   0.000666664   0.000666664   0.000666664   0.000666664   0.000666664   0.000666664   0.000666664  
2900          0.000666664   0.000666664   0.000666664   0.000666664   0.000666664   0.000666664   0.000666664   0.000666664   0.000666664   0.000666664   0.000666664  
2950          0.000666664   0.000666664   0.000666664   0.000666664   0.000666664   0.000666664   0.000666664   0.000666664   0.000666664   0.000666664   0.000666664  
3000          0.000666664   0.000666664   0.000666664   0.000666664   0.000666664   0.000666664   0.000666664   0.000666664   0.000666664   0.000666664   0.000666664  
3050          0.000666664   0.000666664   0.000666664   0.000666664   0.000666664   0.000666664   0.000666664   0.000666664   0.000666664   0.000666664   0.000666664  
3100          0.000666664   0.000666664   0.000666664   0.000666664   0.000666664   0.000666664   0.000666664   0.000666664   0.000666664   0.000666664   0.000666664  
3150          0.000666664   0.000666664   0.000666664   0.000666664   0.000666664   0.000666664   0.000666664   0.000666664   0.000666664   0.000666664   0.000666664  
3200          0.000666664   0.000666664   0.000666664   0.000666664   0.000666664   0.000666664   0.000666664   0.000666664   0.000666664   0.000666664   0.000666664  
3250          0.000666664   0.000666664   0.000666664   0.000666664   0.000666664   0.000666664   0.000666664   0.000666664   0.000666664   0.000666664   0.000666664  
3300          0.000666664   0.000666664   0.000666664   0.000666664   0.000666664   0.000666664   0.000666664   0.000666664   0.000666664   0.000666664   0.000666664  
3350          0.000666664   0.000666664   0.000666664   0.000666664   0.000666664   0.000666664   0.000666664   0.000666664   0.000666664   0.000666664   0.000666664  
3400          0.000666664   0.000666664   0.000666664   0.000666664   0.000666664   0.000666664   0.000666664   0.000666664   0.000666664   0.000666664   0.000666664  
3450          0.000666664   0.000666664   0.000666664   0.000666664   0.000666664   0.000666664   0.000666664   0.000666664   0.000666664   0.000666664   0.000666664  
3500          0.000666664   0.000666664   0.000666664   0.000666664   0.000666664   0.000666664   0.000666664   0.000666664   0.000666664   0.000666664   0.000666664  
3550          0.000666664   0.000666664   0.000666664   0.000666664   0.000666664   0.000666664   0.000666664   0.000666664   0.000666664   0.000666664   0.000666664  
3600          0.000666664   0.000666664   0.000666664   0.000666664   0.000666664   0.000666664   0.000666664   0.000666664   0.000666664   0.000666664   0.000666664  
3650          0.000666664   0.000666664   0.000666664   0.000666664   0.000666664   0.000666664   0.000666664   0.000666664   0.000666664   0.000666664   0.000666664  
3700          0.000666664   0.000666664   0.000666664   0.000666664   0.000666664   0.000666664   0.000666664   0.000666664   0.000666664   0.000666664   0.000666664  
3750          0.000666664   0.000666664   0.000666664   0.000666664   0.000666664   0.000666664   0.000666664   0.000666664   0.000666664   0.000666664   0.000666664  
3800          0.000666664   0.000666664   0.000666664   0.000666664   0.000666664   0.000666664   0.000666664   0.000666664   0.000666664   0.000666664   0.000666664  
3850          0.000666664   0.000666664   0.000666664   0.000666664   0.000666664   0.000666664   0.000666664   0.000666664   0.000666664   0.000666664   0.000666664  
3900          0.000666664   0.000666664   0.000666664   0.000666664   0.000666664   0.000666664   0.000666664   0.000666664   0.000666664   0.000666664   0.000666664  
3950          0.000666664   0.000666664   0.000666664   0.000666664   0.000666664   0.000666664   0.000666664   0.000666664   0.000666664   0.000666664   0.000666664  
4000          0.000666664   0.000666664   0.000666664   0.000666664   0.000666664   0.000666664   0.000666664   0.000666664   0.000666664   0.000666664   0.000666664  
4050          0.000666664   0.000666664   0.000666664   0.000666664   0.000666664   0.000666664   0.000666664   0.000666664   0.000666664   0.000666664   0.000666664  
4100          0.000666664   0.000666664   0.000666664   0.000666664   0.000666664   0.000666664   0.000666664   0.000666664   0.000666664   0.000666664   0.000666664  
4150          0.000666664   0.000666664   0.000666664   0.000666664   0.000666664   0.000666664   0.000666664   0.000666664   0.000666664   0.000666664   0.000666664  
4200          0.000666664   0.000666664   0.000666664   0.000666664   0.000666664   0.000666664   0.000666664   0.000666664   0.000666664   0.000666664   0.000666664  
4250          0.000666664   0.000666664   0.000666664   0.000666664   0.000666664   0.000666664   0.000666664   0.000666664   0.000666664   0.000666664   0.000666664  
4300          0.000666664   0.000666664   0.000666664   0.000666664   0.000666664   0.000666664   0.000666664   0.000666664   0.000666664   0.000666664   0.000666664  
4350          0.000666664   0.000666664   0.000666664   0.000666664   0.000666664   0.000666664   0.000666664   0.000666664   0.000666664   0.000666664   0.000666664  
4400          0.000666664   0.000666664   0.000666664   0.000666664   0.000666664   0.000666664   0.000666664   0.000666664   0.000666664   0.000666664   0.000666664  
4450          0.000666664   0.000666664   0.000666664   0.000666664   0.000666664   0.000666664   0.000666664   0.000666664   0.000666664   0.000666664   0.000666664  
4500          0.000666664   0.000666664   0.000666664   0.000666664   0.000666664   0.000666664   0.000666664   0.000666664   0.000666664   0.000666664   0.000666664  
4550          0.000666664   0.000666664   0.000666664   0.000666664   0.000666664   0.000666664   0.000666664   0.000666664   0.000666664   0.000666664   0.000666664  
4600          0.000666664   0.000666664   0.000666664   0.000666664   0.000666664   0.000666664   0.000666664   0.000666664   0.000666664   0.000666664   0.000666664  
4650          0.000666664   0.000666664   0.000666664   0.000666664   0.000666664   0.000666664   0.000666664   0.000666664   0.000666664   0.000666664   0.000666664  
4700          0.000666664   0.000666664   0.000666664   0.000666664   0.000666664   0.000666664   0.000666664   0.000666664   0.000666664   0.000666664   0.000666664  
4750          0.000666664   0.000666664   0.000666664   0.000666664   0.000666664   0.000666664   0.000666664   0.000666664   0.000666664   0.000666664   0.000666664  
4800          0.000666664   0.000666664   0.000666664   0.000666664   0.000666664   0.000666664   0.000666664   0.000666664   0.000666664   0.000666664   0.000666664  
4850          0.000666664   0.000666664   0.000666664   0.000666664   0.000666664   0.000666664   0.000666664   0.000666664   0.000666664   0.000666664   0.000666664  
4900          0.000666664   0.000666664   0.000666664   0.000666664   0.000666664   0.000666664   0.000666664   0.000666664   0.000666664   0.000666664   0.000666664  
4950          0.000666664   0.000666664   0.000666664   0.000666664   0.000666664   0.000666664   0.000666664   0.000666664   0.000666664   0.000666664   0.000666664  
5000          0.000666664   0.000666664   0.000666664   0.000666664   0.000666664   0.000666664   0.000666664   0.000666664   0.000666664   0.000666664   0.000666664  
