# Probe 0 (0.0015 0.0015 0)
# Probe 1 (0.0015 0.0015 0.002)
# Probe 2 (0.0015 0.0015 0.004)
# Probe 3 (0.0015 0.0015 0.006)
# Probe 4 (0.0015 0.0015 0.008)
# Probe 5 (0.0015 0.0015 0.01)
# Probe 6 (0.0015 0.0015 0.012)
# Probe 7 (0.0015 0.0015 0.014)
# Probe 8 (0.0015 0.0015 0.016)
# Probe 9 (0.0015 0.0015 0.018)
# Probe 10 (0.0015 0.0015 0.02)
# Time        0             1             2             3             4             5             6             7             8             9             10           
50            (-0.0427293 -0.0427293 20650.8) (-0.0427293 -0.0427293 20650.8) (0.0356804 0.0356804 12036.1) (0.0340534 0.0340534 5415.49) (0.013463 0.013463 2230.08) (0.00410876 0.00410876 922.371) (0.00191864 0.00191864 489.629) (0.00366365 0.00366365 531.81) (0.00776062 0.00776062 1025.15) (0.0126842 0.0126842 2220.05) (0.000162972 0.000162972 4628.13)
100           (0.0398667 0.0398667 17026.5) (0.0398667 0.0398667 17026.5) (0.00488059 0.00488059 12907.3) (-0.020293 -0.020293 8068.96) (-0.0193919 -0.0193919 4354.91) (-0.0123158 -0.0123158 2227.87) (-0.00793102 -0.00793102 1285.33) (-0.0059914 -0.0059914 1122.95) (-0.00573367 -0.00573367 1556.79) (-0.00462969 -0.00462969 2555.68) (0.00291208 0.00291208 4074.58)
150           (-0.0584728 -0.0584728 14550.4) (-0.0584728 -0.0584728 14550.4) (-0.0254288 -0.0254288 12252.4) (0.0105232 0.0105232 9060.36) (0.0277085 0.0277085 5901.43) (0.0248633 0.0248633 3561.62) (0.0172003 0.0172003 2246.09) (0.0127133 0.0127133 1796.05) (0.0105456 0.0105456 2005.32) (0.00597962 0.00597962 2708.22) (-0.00688031 -0.00688031 3709.3)
200           (0.0685823 0.0685823 12886.2) (0.0685823 0.0685823 12886.2) (0.0422478 0.0422478 11413.8) (0.00960471 0.00960471 9237.09) (-0.0192721 -0.0192721 6792.43) (-0.0315549 -0.0315549 4644.54) (-0.0300581 -0.0300581 3181.88) (-0.023339 -0.023339 2481.72) (-0.0152955 -0.0152955 2427.11) (-0.00603147 -0.00603147 2836.15) (0.00763369 0.00763369 3483.36)
250           (-0.0401447 -0.0401447 11701) (-0.0401447 -0.0401447 11701) (-0.0286694 -0.0286694 10672.5) (-0.0135878 -0.0135878 9110.52) (0.00484167 0.00484167 7241.18) (0.0174411 0.0174411 5415.94) (0.020393 0.020393 3982.3) (0.0172188 0.0172188 3126.4) (0.0119289 0.0119289 2839.43) (0.00631883 0.00631883 2987.83) (-0.00311619 -0.00311619 3368.48)
300           (-0.056686 -0.056686 10816.8) (-0.056686 -0.056686 10816.8) (-0.0440364 -0.0440364 10057.8) (-0.0258998 -0.0258998 8888.42) (-0.00232722 -0.00232722 7438.91) (0.0185365 0.0185365 5927.48) (0.0296461 0.0296461 4612.89) (0.0295505 0.0295505 3694.3) (0.021507 0.021507 3235.53) (0.00990614 0.00990614 3169.57) (-0.00357785 -0.00357785 3340.98)
350           (-0.0375518 -0.0375518 10134.3) (-0.0375518 -0.0375518 10134.3) (-0.0306567 -0.0306567 9552.29) (-0.0203407 -0.0203407 8647.6) (-0.00618692 -0.00618692 7501.14) (0.00787468 0.00787468 6253.05) (0.0175873 0.0175873 5085.74) (0.0202924 0.0202924 4170.83) (0.0164009 0.0164009 3603.64) (0.00876026 0.00876026 3373.88) (5.30392e-05 5.30392e-05 3380.95)
400           (0.0503799 0.0503799 9593.33) (0.0503799 0.0503799 9593.33) (0.0427646 0.0427646 9134.08) (0.0330016 0.0330016 8415.6) (0.0169699 0.0169699 7490.9) (-0.0017676 -0.0017676 6453.27) (-0.0177755 -0.0177755 5430.41) (-0.0257884 -0.0257884 4557.94) (-0.0248879 -0.0248879 3935.31) (-0.0178265 -0.0178265 3589.83) (-0.00595607 -0.00595607 3471.25)
450           (0.041634 0.041634 9155.28) (0.041634 0.041634 9155.28) (0.0362463 0.0362463 8784.5) (0.0292625 0.0292625 8201.45) (0.0175378 0.0175378 7442.15) (0.00331286 0.00331286 6570.74) (-0.0101739 -0.0101739 5677.55) (-0.0190554 -0.0190554 4866.22) (-0.0212416 -0.0212416 4227.18) (-0.0173627 -0.0173627 3807.76) (-0.00900498 -0.00900498 3597.44)
500           (0.032591 0.032591 8794.11) (0.032591 0.032591 8794.11) (0.0288336 0.0288336 8488.98) (0.0241421 0.0241421 8007.11) (0.0160408 0.0160408 7373.66) (0.00593577 0.00593577 6633.92) (-0.00438203 -0.00438203 5852.94) (-0.0125328 -0.0125328 5109.28) (-0.0165132 -0.0165132 4480.08) (-0.0156048 -0.0156048 4020.33) (-0.0107457 -0.0107457 3747.49)
550           (0.0257352 0.0257352 8491.64) (0.0257352 0.0257352 8491.64) (0.0230682 0.0230682 8236.43) (0.0198527 0.0198527 7831.94) (0.0141448 0.0141448 7296.08) (0.00689934 0.00689934 6661.66) (-0.000841556 -0.000841556 5976.45) (-0.00770111 -0.00770111 5300.34) (-0.0122446 -0.0122446 4697.32) (-0.0133686 -0.0133686 4222.73) (-0.0114457 -0.0114457 3911.65)
600           (0.0204888 0.0204888 8234.89) (0.0204888 0.0204888 8234.89) (0.0185601 0.0185601 8018.46) (0.0163039 0.0163039 7674.35) (0.012201 0.012201 7215.6) (0.00692912 0.00692912 6666.47) (0.00113059 0.00113059 6062.83) (-0.00440281 -0.00440281 5450.91) (-0.00878353 -0.00878353 4883.37) (-0.0110576 -0.0110576 4412.25) (-0.0113688 -0.0113688 4082.24)
650           (-0.00247466 -0.00247466 8014.46) (-0.00247466 -0.00247466 8014.46) (-0.00243827 -0.00243827 7828.72) (-0.00222481 -0.00222481 7532.63) (-0.00181004 -0.00181004 7135.85) (-0.00115342 -0.00115342 6656.72) (-0.000355684 -0.000355684 6122.76) (0.000336453 0.000336453 5570.32) (0.000666113 0.000666113 5042.83) (0.000704113 0.000704113 4587.62) (0.00105691 0.00105691 4253.42)
700           (0.00657091 0.00657091 7823.23) (0.00657091 0.00657091 7823.23) (0.00612744 0.00612744 7662.2) (0.00554338 0.00554338 7404.97) (0.00460468 0.00460468 7058.84) (0.00358487 0.00358487 6638.03) (0.00259559 0.00259559 6164.12) (0.00163184 0.00163184 5666.18) (0.000392588 0.000392588 5180.32) (-0.00164357 -0.00164357 4748.79) (-0.00500553 -0.00500553 4420.81)
750           (0.00728793 0.00728793 7656.05) (0.00728793 0.00728793 7656.05) (0.00683288 0.00683288 7515.27) (0.00614428 0.00614428 7290) (0.00498602 0.00498602 6985.9) (0.00359656 0.00359656 6614.23) (0.00211481 0.00211481 6192.28) (0.000651983 0.000651983 5743.8) (-0.000859801 -0.000859801 5299.18) (-0.00264359 -0.00264359 4895.94) (-0.00514451 -0.00514451 4581.63)
800           (0.00663007 0.00663007 7508.86) (0.00663007 0.00663007 7508.86) (0.00627293 0.00627293 7384.92) (0.00569022 0.00569022 7186.36) (0.00464401 0.00464401 6917.64) (0.0033156 0.0033156 6587.88) (0.00181398 0.00181398 6211.27) (0.000268015 0.000268015 5807.57) (-0.00126902 -0.00126902 5402.69) (-0.00277651 -0.00277651 5029.89) (-0.00454383 -0.00454383 4733.84)
850           (0.00572712 0.00572712 7378.52) (0.00572712 0.00572712 7378.52) (0.00549646 0.00549646 7268.81) (0.00505085 0.00505085 7092.87) (0.00417559 0.00417559 6854.33) (0.00300889 0.00300889 6560.73) (0.00163117 0.00163117 6223.95) (0.000165469 0.000165469 5860.73) (-0.0012751 -0.0012751 5493.43) (-0.00250968 -0.00250968 5151.54) (-0.00368222 -0.00368222 4876.28)
900           (0.00485924 0.00485924 7262.59) (0.00485924 0.00485924 7262.59) (0.00473767 0.00473767 7165.04) (0.00441318 0.00441318 7008.5) (0.00370052 0.00370052 6796.01) (0.00270703 0.00270703 6533.91) (0.00149111 0.00149111 6232.33) (0.000163604 0.000163604 5905.69) (-0.00113551 -0.00113551 5573.45) (-0.00212935 -0.00212935 5261.8) (-0.00284819 -0.00284819 5008.35)
950           (0.0041216 0.0041216 7159.11) (0.0041216 0.0041216 7159.11) (0.00408034 0.00408034 7072.07) (0.0038488 0.0038488 6932.37) (0.00326953 0.00326953 6742.57) (0.00242823 0.00242823 6508.14) (0.00136789 0.00136789 6237.84) (0.000186593 0.000186593 5944.21) (-0.000966951 -0.000966951 5644.38) (-0.00176529 -0.00176529 5361.61) (-0.00215881 -0.00215881 5129.97)
1000          (0.00352305 0.00352305 7066.5) (0.00352305 0.00352305 7066.5) (0.0035353 0.0035353 6988.65) (0.00337043 0.00337043 6863.68) (0.00289456 0.00289456 6693.82) (0.0021781 0.0021781 6483.84) (0.00125348 0.00125348 6241.43) (0.000207195 0.000207195 5977.61) (-0.000813353 -0.000813353 5707.5) (-0.00146077 -0.00146077 5451.85) (-0.00163385 -0.00163385 5241.31)
1050          (0.00304276 0.00304276 6983.46) (0.00304276 0.00304276 6983.46) (0.00308765 0.00308765 6913.7) (0.0029689 0.0029689 6801.72) (0.00257179 0.00257179 6649.5) (0.00195562 0.00195562 6461.25) (0.00114559 0.00114559 6243.77) (0.000218007 0.000218007 6006.83) (-0.000686487 -0.000686487 5763.86) (-0.00122034 -0.00122034 5533.34) (-0.00125206 -0.00125206 5342.81)
1100          (0.00265485 0.00265485 6908.91) (0.00265485 0.00265485 6908.91) (0.00271752 0.00271752 6846.32) (0.00263004 0.00263004 6745.87) (0.0022931 0.0022931 6609.32) (0.00175763 0.00175763 6440.45) (0.00104381 0.00104381 6245.31) (0.000219018 0.000219018 6032.6) (-0.000585634 -0.000585634 5814.3) (-0.00103461 -0.00103461 5606.88) (-0.000981209 -0.000981209 5435)
1150          (0.00233688 0.00233688 6841.92) (0.00233688 0.00233688 6841.92) (0.00240735 0.00240735 6785.72) (0.00234086 0.00234086 6695.54) (0.00205057 0.00205057 6572.99) (0.00158086 0.00158086 6421.45) (0.000948305 0.000948305 6246.35) (0.000212485 0.000212485 6055.47) (-0.000506208 -0.000506208 5859.51) (-0.00089126 -0.00089126 5673.17) (-0.000790947 -0.000790947 5518.49)
1200          (0.00207154 0.00207154 6781.69) (0.00207154 0.00207154 6781.69) (0.00214343 0.00214343 6731.2) (0.00209103 0.00209103 6650.22) (0.00183768 0.00183768 6540.19) (0.00142248 0.00142248 6404.19) (0.000859319 0.000859319 6247.09) (0.00020095 0.00020095 6075.86) (-0.000443195 -0.000443195 5900.08) (-0.000779182 -0.000779182 5732.88) (-0.00065691 -0.00065691 5593.94)
1250          (0.00184616 0.00184616 6727.54) (0.00184616 0.00184616 6727.54) (0.00191564 0.00191564 6682.17) (0.00187277 0.00187277 6609.42) (0.00164938 0.00164938 6510.64) (0.00128018 0.00128018 6388.58) (0.000776983 0.000776983 6247.64) (0.000186553 0.000186553 6094.1) (-0.000392324 -0.000392324 5936.52) (-0.000689641 -0.000689641 5786.63) (-0.000561039 -0.000561039 5661.99)
1300          (0.00165168 0.00165168 6678.84) (0.00165168 0.00165168 6678.84) (0.00171662 0.00171662 6638.07) (0.00168031 0.00168031 6572.73) (0.00148181 0.00148181 6484.03) (0.00115206 0.00115206 6374.5) (0.000701266 0.000701266 6248.09) (0.000170882 0.000170882 6110.45) (-0.000350319 -0.000350319 5969.25) (-0.000616214 -0.000616214 5834.98) (-0.000490582 -0.000490582 5723.28)
1350          (0.011997 0.011997 6635.08) (0.011997 0.011997 6635.08) (0.0110875 0.0110875 6598.44) (0.0100142 0.0100142 6539.74) (0.00816598 0.00816598 6460.11) (0.00562089 0.00562089 6361.82) (0.00245485 0.00245485 6248.46) (-0.00118501 -0.00118501 6125.1) (-0.00505549 -0.00505549 5998.63) (-0.00868566 -0.00868566 5878.43) (-0.0120948 -0.0120948 5778.43)
1400          (0.0108995 0.0108995 6595.74) (0.0108995 0.0108995 6595.74) (0.0100983 0.0100983 6562.82) (0.00913464 0.00913464 6510.1) (0.00745905 0.00745905 6438.61) (0.00514029 0.00514029 6350.43) (0.00224567 0.00224567 6248.8) (-0.00109196 -0.00109196 6138.28) (-0.00464926 -0.00464926 6025.05) (-0.00799111 -0.00799111 5917.47) (-0.0111044 -0.0111044 5827.99)
1450          (0.00978766 0.00978766 6560.38) (0.00978766 0.00978766 6560.38) (0.00906648 0.00906648 6530.81) (0.00819957 0.00819957 6483.47) (0.00669381 0.00669381 6419.32) (0.00461117 0.00461117 6340.23) (0.00201219 0.00201219 6249.13) (-0.000985011 -0.000985011 6150.14) (-0.00418384 -0.00418384 6048.78) (-0.0071998 -0.0071998 5952.53) (-0.0100214 -0.0100214 5872.49)
1500          (0.00878479 0.00878479 6528.61) (0.00878479 0.00878479 6528.61) (0.00813534 0.00813534 6502.06) (0.00735454 0.00735454 6459.57) (0.0060006 0.0060006 6402.01) (0.00413024 0.00413024 6331.09) (0.00179842 0.00179842 6249.46) (-0.000888891 -0.000888891 6160.8) (-0.00375639 -0.00375639 6070.09) (-0.00646206 -0.00646206 5984) (-0.00900011 -0.00900011 5912.42)
1550          (0.00788062 0.00788062 6500.09) (0.00788062 0.00788062 6500.09) (0.0072959 0.0072959 6476.25) (0.0065932 0.0065932 6438.12) (0.00537662 0.00537662 6386.5) (0.00369765 0.00369765 6322.92) (0.00160627 0.00160627 6249.78) (-0.00080208 -0.00080208 6170.4) (-0.00337057 -0.00337057 6089.22) (-0.00579378 -0.00579378 6012.23) (-0.00806908 -0.00806908 5948.23)
1600          (0.00706674 0.00706674 6474.47) (0.00706674 0.00706674 6474.47) (0.00654054 0.00654054 6453.09) (0.00590822 0.00590823 6418.88) (0.00481529 0.00481529 6372.59) (0.00330866 0.00330866 6315.61) (0.00143371 0.00143371 6250.09) (-0.000723689 -0.000723689 6179.02) (-0.00302318 -0.00302318 6106.4) (-0.00519185 -0.00519185 6037.55) (-0.00722859 -0.00722859 5980.33)
1650          (0.00633465 0.00633465 6451.49) (0.00633465 0.00633465 6451.49) (0.00586129 0.00586129 6432.3) (0.00529261 0.00529261 6401.63) (0.0043112 0.0043112 6360.13) (0.00295969 0.00295969 6309.07) (0.00127931 0.00127931 6250.39) (-0.000652697 -0.000652697 6186.78) (-0.00271069 -0.00271069 6121.81) (-0.00465078 -0.00465078 6060.25) (-0.00647278 -0.00647278 6009.09)
1700          (0.00567668 0.00567668 6430.87) (0.00567668 0.00567668 6430.87) (0.00525107 0.00525107 6413.66) (0.00473982 0.00473982 6386.17) (0.00385886 0.00385886 6348.97) (0.00264689 0.00264689 6303.23) (0.00114131 0.00114131 6250.69) (-0.000588381 -0.000588381 6193.76) (-0.00242977 -0.00242977 6135.64) (-0.00416492 -0.00416492 6080.59) (-0.00579424 -0.00579424 6034.86)
1750          (0.0050857 0.0050857 6412.38) (0.0050857 0.0050857 6412.38) (0.00470319 0.00470319 6396.95) (0.00424379 0.00424379 6372.3) (0.00345328 0.00345328 6338.98) (0.00236677 0.00236677 6298.01) (0.00101815 0.00101815 6250.97) (-0.000530096 -0.000530096 6200.02) (-0.00217736 -0.00217736 6148.03) (-0.00372895 -0.00372895 6098.82) (-0.00518567 -0.00518567 6057.94)
1800          (0.00455519 0.00455519 6395.8) (0.00455519 0.00455519 6395.8) (0.00421157 0.00421157 6381.97) (0.00379893 0.00379893 6359.89) (0.00308982 0.00308982 6330.03) (0.00211605 0.00211605 6293.34) (0.000908293 0.000908293 6251.23) (-0.000477299 -0.000477299 6205.64) (-0.0019507 -0.0019507 6159.15) (-0.00333797 -0.00333797 6115.15) (-0.00464022 -0.00464022 6078.61)
1850          (0.00407918 0.00407918 6380.94) (0.00407918 0.00407918 6380.94) (0.00377062 0.00377062 6368.55) (0.00340015 0.00340015 6348.76) (0.00276427 0.00276427 6322.02) (0.00189175 0.00189175 6289.17) (0.000810349 0.000810349 6251.48) (-0.000429501 -0.000429501 6210.69) (-0.00174725 -0.00174725 6169.11) (-0.00298751 -0.00298751 6129.77) (-0.00415158 -0.00415158 6097.11)
1900          (0.00365224 0.00365224 6367.62) (0.00365224 0.00365224 6367.62) (0.0033753 0.0033753 6356.52) (0.00304281 0.00304281 6338.8) (0.00247276 0.00247276 6314.85) (0.00169114 0.00169114 6285.44) (0.000723042 0.000723042 6251.71) (-0.000386263 -0.000386263 6215.22) (-0.00156471 -0.00156471 6178.03) (-0.00267347 -0.00267347 6142.86) (-0.00371398 -0.00371398 6113.67)
1950          (0.00326947 0.00326947 6355.69) (0.00326947 0.00326947 6355.69) (0.00302099 0.00302099 6345.75) (0.0027227 0.0027227 6329.88) (0.0022118 0.0022118 6308.44) (0.00151177 0.00151177 6282.11) (0.000645221 0.000645221 6251.93) (-0.000347186 -0.000347186 6219.29) (-0.00140099 -0.00140099 6186.03) (-0.00239216 -0.00239216 6154.59) (-0.0033222 -0.0033222 6128.5)
2000          (0.0029264 0.0029264 6345.01) (0.0029264 0.0029264 6345.01) (0.00270353 0.00270353 6336.1) (0.00243602 0.00243602 6321.89) (0.00197825 0.00197825 6302.7) (0.00135139 0.00135139 6279.14) (0.000575853 0.000575853 6252.13) (-0.0003119 -0.0003119 6222.93) (-0.0012542 -0.0012542 6193.19) (-0.00214024 -0.00214024 6165.08) (-0.00297153 -0.00297153 6141.76)
2050          (0.002619 0.002619 6335.44) (0.002619 0.002619 6335.44) (0.00241916 0.00241916 6327.47) (0.00217933 0.00217933 6314.74) (0.00176925 0.00176925 6297.56) (0.00120802 0.00120802 6276.48) (0.000514013 0.000514013 6252.32) (-0.000280066 -0.000280066 6226.2) (-0.00112263 -0.00112263 6199.61) (-0.00191468 -0.00191468 6174.47) (-0.00265771 -0.00265771 6153.63)
2100          (0.000256721 0.000256722 6326.88) (0.000256721 0.000256722 6326.88) (0.000249579 0.000249579 6319.74) (0.000185592 0.000185592 6308.35) (0.000135711 0.000135711 6292.97) (7.24692e-05 7.24693e-05 6274.1) (-1.29732e-06 -1.29732e-06 6252.48) (-7.83603e-05 -7.83603e-05 6229.12) (-0.000150421 -0.000150421 6205.34) (-0.000223969 -0.000223969 6182.87) (-0.000108727 -0.000108727 6164.24)
2150          (0.00052864 0.00052864 6319.21) (0.00052864 0.00052864 6319.21) (0.000523757 0.000523757 6312.82) (0.000440882 0.000440882 6302.62) (0.000342686 0.000342686 6288.86) (0.000216318 0.000216318 6271.98) (6.74004e-05 6.74004e-05 6252.64) (-9.15743e-05 -9.15742e-05 6231.74) (-0.000238255 -0.000238255 6210.48) (-0.000348347 -0.000348347 6190.4) (-0.000257833 -0.000257833 6173.75)
2200          (0.000349921 0.000349921 6312.34) (0.000349921 0.000349921 6312.34) (0.00036178 0.00036178 6306.62) (0.000348918 0.000348918 6297.5) (0.000346779 0.000346779 6285.18) (0.000310166 0.000310166 6270.08) (0.000222615 0.000222615 6252.78) (8.08694e-05 8.08694e-05 6234.09) (-0.000110933 -0.000110933 6215.08) (-0.000336384 -0.000336384 6197.13) (-0.000394367 -0.000394367 6182.24)
2250          (0.000388218 0.000388218 6306.2) (0.000388218 0.000388218 6306.2) (0.000301817 0.000301817 6301.08) (9.55753e-05 9.55753e-05 6292.91) (-0.000132164 -0.000132164 6281.89) (-0.000336061 -0.000336061 6268.38) (-0.000454151 -0.000454151 6252.91) (-0.000439824 -0.000439824 6236.2) (-0.00027451 -0.00027451 6219.2) (2.11206e-06 2.1121e-06 6203.15) (0.000416516 0.000416516 6189.85)
2300          (-0.00164015 -0.00164015 6300.7) (-0.00164015 -0.00164015 6300.7) (-0.00136158 -0.00136158 6296.12) (-0.00101905 -0.00101905 6288.81) (-0.000559235 -0.000559235 6278.96) (-0.000112016 -0.000112016 6266.87) (0.000220833 0.000220833 6253.03) (0.000381595 0.000381595 6238.08) (0.000382618 0.000382618 6222.88) (0.000310131 0.000310131 6208.54) (0.00055618 0.00055618 6196.64)
2350          (-0.000842546 -0.000842546 6295.78) (-0.000842546 -0.000842546 6295.78) (-0.00104231 -0.00104231 6291.68) (-0.00134834 -0.00134834 6285.14) (-0.00152667 -0.00152667 6276.32) (-0.00151116 -0.00151116 6265.51) (-0.00123462 -0.00123462 6253.13) (-0.000679854 -0.000679854 6239.77) (9.92988e-05 9.92988e-05 6226.18) (0.000967941 0.000967941 6213.36) (0.00196513 0.00196513 6202.73)
2400          (-0.00172667 -0.00172667 6291.37) (-0.00172667 -0.00172667 6291.37) (-0.00139886 -0.00139886 6287.71) (-0.00104118 -0.00104118 6281.86) (-0.000624527 -0.000624528 6273.97) (-0.000250876 -0.000250876 6264.3) (2.62627e-05 2.62627e-05 6253.23) (0.000199176 0.000199176 6241.28) (0.000310307 0.000310307 6229.13) (0.000427506 0.000427506 6217.67) (0.000838848 0.000838848 6208.16)
2450          (-0.000630816 -0.000630816 6287.44) (-0.000630816 -0.000630816 6287.44) (-0.000852655 -0.000852655 6284.16) (-0.00114117 -0.00114117 6278.92) (-0.00128287 -0.00128287 6271.87) (-0.00123005 -0.00123005 6263.22) (-0.000955816 -0.000955816 6253.32) (-0.000478882 -0.000478882 6242.63) (0.000137235 0.000137235 6231.77) (0.000790063 0.000790064 6221.52) (0.00154214 0.00154214 6213.03)
2500          (-0.00141604 -0.00141604 6283.91) (-0.00141604 -0.00141604 6283.91) (-0.00111055 -0.00111055 6280.98) (-0.000794001 -0.000794001 6276.3) (-0.000461623 -0.000461623 6269.99) (-0.000190757 -0.000190757 6262.25) (-3.86141e-06 -3.8614e-06 6253.4) (0.000115851 0.000115851 6243.85) (0.000214612 0.000214612 6234.13) (0.000341468 0.000341468 6224.97) (0.000707329 0.000707329 6217.38)
2550          (-0.000490574 -0.000490575 6280.76) (-0.000490574 -0.000490575 6280.76) (-0.000697055 -0.000697055 6278.13) (-0.000947488 -0.000947488 6273.95) (-0.00105781 -0.00105781 6268.3) (-0.000993572 -0.000993572 6261.39) (-0.000748225 -0.000748225 6253.47) (-0.00035269 -0.00035269 6244.93) (0.000134785 0.000134785 6236.25) (0.000637123 0.000637123 6228.05) (0.00121911 0.00121911 6221.27)
2600          (-0.0121841 -0.0121841 6277.94) (-0.0121841 -0.0121841 6277.94) (-0.0126102 -0.0126102 6275.6) (-0.0129936 -0.0129936 6271.85) (-0.0122054 -0.0122054 6266.8) (-0.0101447 -0.0101447 6260.61) (-0.00684048 -0.00684048 6253.53) (-0.00249661 -0.00249661 6245.9) (0.00254868 0.00254868 6238.13) (0.00784487 0.00784487 6230.81) (0.0138217 0.0138217 6224.74)
2650          (-0.00422508 -0.00422508 6275.42) (-0.00422508 -0.00422508 6275.42) (-0.00402963 -0.00402963 6273.32) (-0.00393167 -0.00393167 6269.97) (-0.00350571 -0.00350571 6265.46) (-0.00284123 -0.00284123 6259.92) (-0.00195993 -0.00195993 6253.59) (-0.0008992 -0.0008992 6246.76) (0.000294868 0.000294868 6239.82) (0.00148263 0.00148263 6233.28) (0.00319584 0.00319584 6227.86)
2700          (-0.0126039 -0.0126039 6273.17) (-0.0126039 -0.0126039 6273.17) (-0.0123364 -0.0123364 6271.29) (-0.0118656 -0.0118656 6268.29) (-0.0105291 -0.0105291 6264.25) (-0.00835946 -0.00835946 6259.3) (-0.00539967 -0.00539967 6253.64) (-0.00174381 -0.00174381 6247.54) (0.00245952 0.00245952 6241.33) (0.00699888 0.00699888 6235.48) (0.0122875 0.0122875 6230.64)
2750          (-0.000185171 -0.000185171 6271.14) (-0.000185171 -0.000185171 6271.14) (0.000238764 0.000238764 6269.46) (0.000254328 0.000254328 6266.78) (0.000260348 0.000260348 6263.17) (0.000250615 0.000250615 6258.75) (0.000246858 0.000246858 6253.69) (0.000259301 0.000259301 6248.23) (0.000298137 0.000298137 6242.69) (0.000339492 0.000339492 6237.46) (0.000857895 0.000857895 6233.14)
2800          (0.00103045 0.00103045 6269.34) (0.00103045 0.00103045 6269.34) (0.000963022 0.000963022 6267.83) (0.000836855 0.000836855 6265.44) (0.000679837 0.000679837 6262.21) (0.000483046 0.000483046 6258.26) (0.000258107 0.000258107 6253.73) (2.40742e-05 2.40742e-05 6248.85) (-0.00019815 -0.00019815 6243.9) (-0.000383964 -0.000383964 6239.23) (-0.000410543 -0.000410543 6235.36)
2850          (0.00966793 0.00966793 6267.72) (0.00966793 0.00966793 6267.72) (0.00937609 0.00937609 6266.38) (0.008944 0.008944 6264.24) (0.00782226 0.00782226 6261.35) (0.00606842 0.00606842 6257.81) (0.00372004 0.00372004 6253.77) (0.000854684 0.000854684 6249.41) (-0.00239549 -0.00239549 6244.98) (-0.00580353 -0.00580353 6240.81) (-0.00970517 -0.00970517 6237.35)
2900          (0.00273911 0.00273911 6266.3) (0.00273911 0.00273911 6266.3) (0.00214579 0.00214579 6265.09) (0.00186027 0.00186027 6263.17) (0.00142085 0.00142085 6260.59) (0.000833122 0.000833122 6257.42) (0.000133026 0.000133026 6253.8) (-0.000637559 -0.000637559 6249.9) (-0.00143464 -0.00143464 6245.93) (-0.00217328 -0.00217328 6242.2) (-0.00310443 -0.00310443 6239.11)
2950          (-0.00438103 -0.00438103 6265.02) (-0.00438103 -0.00438103 6265.02) (-0.00431425 -0.00431425 6263.94) (-0.00421762 -0.00421762 6262.22) (-0.00382423 -0.00382423 6259.91) (-0.00313045 -0.00313045 6257.07) (-0.00214836 -0.00214836 6253.83) (-0.000906782 -0.000906782 6250.34) (0.000547541 0.000547541 6246.79) (0.00215277 0.00215277 6243.45) (0.00405198 0.00405198 6240.68)
3000          (-0.00020765 -0.00020765 6263.85) (-0.00020765 -0.00020765 6263.85) (-0.000209442 -0.000209442 6262.89) (-0.000142335 -0.000142335 6261.36) (-3.44995e-05 -3.44995e-05 6259.29) (4.91003e-05 4.91003e-05 6256.76) (0.000121491 0.000121491 6253.86) (0.000182924 0.000182924 6250.74) (0.00023538 0.00023538 6247.57) (0.000259932 0.000259932 6244.59) (0.000556619 0.000556619 6242.11)
3050          (0.000738014 0.000738014 6262.84) (0.000738014 0.000738014 6262.84) (0.00091772 0.00091772 6261.98) (0.000513413 0.000513413 6260.6) (3.59626e-05 3.59626e-05 6258.75) (-0.000368992 -0.000368992 6256.48) (-0.000719983 -0.000719983 6253.88) (-0.00101773 -0.00101773 6251.09) (-0.00125207 -0.00125207 6248.25) (-0.00140572 -0.00140572 6245.58) (-0.00148567 -0.00148567 6243.37)
3100          (0.00242813 0.00242813 6261.91) (0.00242813 0.00242813 6261.91) (0.00156557 0.00156557 6261.12) (0.00171051 0.00171051 6259.9) (0.0018624 0.0018624 6258.25) (0.00167578 0.00167578 6256.23) (0.00123146 0.00123146 6253.91) (0.000609703 0.000609703 6251.41) (-0.000122414 -0.000122414 6248.88) (-0.000911506 -0.000911506 6246.49) (-0.00153566 -0.00153566 6244.51)
3150          (0.000198541 0.000198541 6261.1) (0.000198541 0.000198541 6261.1) (0.00189247 0.00189247 6260.43) (0.00130585 0.00130585 6259.32) (0.000360935 0.000360935 6257.82) (-0.000244074 -0.000244074 6256) (-0.000637242 -0.000637242 6253.92) (-0.000934403 -0.000934403 6251.69) (-0.00118238 -0.00118238 6249.41) (-0.00137662 -0.00137662 6247.27) (-0.00157931 -0.0015793 6245.51)
3200          (0.00361217 0.00361217 6260.39) (0.00361217 0.00361217 6260.39) (-0.000642799 -0.000642799 6259.7) (-0.000162093 -0.000162093 6258.73) (0.000998637 0.000998637 6257.42) (0.00126772 0.00126772 6255.81) (0.000946405 0.000946405 6253.95) (0.000363838 0.000363838 6251.94) (-0.000302562 -0.000302562 6249.91) (-0.000963708 -0.000963708 6247.99) (-0.00142675 -0.00142675 6246.41)
3250          (-0.00091235 -0.00091235 6259.72) (-0.00091235 -0.00091235 6259.72) (0.00381276 0.00381276 6259.23) (0.00296102 0.00296102 6258.32) (0.00109595 0.00109595 6257.1) (4.73485e-05 4.73485e-05 6255.63) (-0.000504226 -0.000504226 6253.95) (-0.000899082 -0.000899082 6252.15) (-0.00126394 -0.00126394 6250.33) (-0.00161035 -0.00161035 6248.61) (-0.00191044 -0.00191044 6247.19)
3300          (0.00417562 0.00417562 6259.2) (0.00417562 0.00417562 6259.2) (-0.00221556 -0.00221556 6258.6) (-0.00167244 -0.00167244 6257.82) (5.31074e-05 5.31073e-05 6256.77) (0.000595111 0.000595111 6255.47) (0.000384514 0.000384514 6253.97) (-8.59988e-05 -8.59988e-05 6252.35) (-0.00059712 -0.00059712 6250.71) (-0.00106392 -0.00106392 6249.17) (-0.00137282 -0.00137282 6247.9)
3350          (-0.0013118 -0.0013118 6258.65) (-0.0013118 -0.0013118 6258.65) (0.00442083 0.00442083 6258.28) (0.00351678 0.00351678 6257.53) (0.0013956 0.0013956 6256.53) (0.000266568 0.000266568 6255.33) (-0.000282072 -0.000282072 6253.97) (-0.000681044 -0.000681044 6252.51) (-0.00106805 -0.00106805 6251.04) (-0.00144525 -0.00144525 6249.66) (-0.00174852 -0.00174852 6248.52)
3400          (0.00373973 0.00373973 6258.25) (0.00373973 0.00373973 6258.25) (-0.00214713 -0.00214713 6257.75) (-0.00169465 -0.00169465 6257.11) (-0.000143301 -0.000143301 6256.26) (0.000337502 0.000337502 6255.2) (0.000160164 0.000160164 6253.98) (-0.00021863 -0.00021863 6252.67) (-0.000620522 -0.000620522 6251.35) (-0.000985734 -0.000985734 6250.11) (-0.00124494 -0.00124494 6249.09)
3450          (-0.00147333 -0.00147333 6257.88) (-0.00147333 -0.00147333 6257.88) (0.00367846 0.00367846 6257.53) (0.00301365 0.00301365 6256.92) (0.0011974 0.0011974 6256.1) (0.000220461 0.000220461 6255.11) (-0.000237566 -0.000237566 6253.99) (-0.00055632 -0.00055632 6252.78) (-0.00085637 -0.00085637 6251.57) (-0.00113862 -0.00113862 6250.43) (-0.00130258 -0.00130258 6249.5)
3500          (0.00380742 0.00380742 6257.47) (0.00380742 0.00380742 6257.47) (-0.000109276 -0.000109276 6257.11) (-0.000298398 -0.000298398 6256.58) (0.000612858 0.000612858 6255.88) (0.000872571 0.000872571 6255.01) (0.000561752 0.000561752 6254.01) (1.25866e-05 1.25866e-05 6252.93) (-0.000608012 -0.000608012 6251.84) (-0.00121696 -0.00121696 6250.83) (-0.0017626 -0.0017626 6250.01)
3550          (0.0030502 0.0030502 6257.22) (0.0030502 0.0030502 6257.22) (0.00015969 0.00015969 6256.89) (-0.00016066 -0.00016066 6256.4) (0.000487177 0.000487177 6255.75) (0.000682898 0.000682898 6254.94) (0.000436701 0.000436701 6254.02) (-6.82331e-06 -6.82332e-06 6253.02) (-0.00051221 -0.00051221 6252.01) (-0.00100591 -0.00100591 6251.07) (-0.00139942 -0.00139942 6250.31)
3600          (-0.00014858 -0.00014858 6256.86) (-0.00014858 -0.00014858 6256.86) (0.00170843 0.00170843 6256.62) (0.00178124 0.00178124 6256.18) (0.000934057 0.000934057 6255.59) (0.000259851 0.000259851 6254.86) (-0.000176199 -0.000176199 6254.03) (-0.000512983 -0.000512983 6253.13) (-0.000821155 -0.000821155 6252.23) (-0.00111423 -0.00111423 6251.4) (-0.00139612 -0.00139612 6250.72)
3650          (-5.37009e-05 -5.37009e-05 6256.65) (-5.37009e-05 -5.37009e-05 6256.65) (0.00159708 0.00159708 6256.43) (0.00172891 0.00172891 6256.03) (0.000981206 0.000981206 6255.48) (0.000347922 0.000347923 6254.8) (-8.44473e-05 -8.44473e-05 6254.03) (-0.000430224 -0.000430224 6253.2) (-0.000753292 -0.000753292 6252.37) (-0.00106707 -0.00106707 6251.6) (-0.00138564 -0.00138564 6250.97)
3700          (-1.0033e-05 -1.0033e-05 6256.45) (-1.0033e-05 -1.0033e-05 6256.45) (0.00148899 0.00148899 6256.24) (0.00165273 0.00165273 6255.86) (0.000994318 0.000994318 6255.35) (0.000414637 0.000414637 6254.73) (1.12421e-06 1.12421e-06 6254.02) (-0.000341814 -0.000341814 6253.27) (-0.000670125 -0.000670125 6252.51) (-0.000995924 -0.000995924 6251.81) (-0.00131246 -0.00131246 6251.25)
3750          (2.08169e-05 2.08169e-05 6256.25) (2.08169e-05 2.08169e-05 6256.25) (0.00134052 0.00134052 6256.05) (0.0014507 0.0014507 6255.7) (0.000859851 0.000859851 6255.23) (0.00034019 0.00034019 6254.66) (-4.50904e-05 -4.50904e-05 6254.02) (-0.000366924 -0.000366924 6253.33) (-0.000662493 -0.000662493 6252.65) (-0.000945102 -0.000945102 6252.02) (-0.00120829 -0.00120829 6251.52)
3800          (0.00183153 0.00183153 6256.17) (0.00183153 0.00183153 6256.17) (0.000425696 0.000425696 6255.94) (9.18551e-05 9.18551e-05 6255.6) (0.000298008 0.000298008 6255.16) (0.000326184 0.000326184 6254.63) (0.000144093 0.000144093 6254.02) (-0.00015659 -0.00015659 6253.37) (-0.000506774 -0.000506774 6252.72) (-0.000845887 -0.000845887 6252.12) (-0.00107513 -0.00107513 6251.65)
3850          (5.01575e-05 5.01575e-05 6256.07) (5.01575e-05 5.01575e-05 6256.07) (0.00123295 0.00123295 6255.87) (0.00129493 0.00129493 6255.55) (0.000764604 0.000764604 6255.11) (0.00030458 0.00030458 6254.58) (-5.04764e-05 -5.04764e-05 6254) (-0.000357243 -0.000357243 6253.39) (-0.000638411 -0.000638411 6252.78) (-0.000899855 -0.000899855 6252.23) (-0.00111259 -0.00111259 6251.79)
3900          (0.00174308 0.00174308 6255.99) (0.00174308 0.00174308 6255.99) (0.000457611 0.000457611 6255.77) (0.000197938 0.000197938 6255.45) (0.000391254 0.000391254 6255.04) (0.00040028 0.00040028 6254.55) (0.00021427 0.00021427 6254) (-9.16451e-05 -9.16451e-05 6253.42) (-0.000465173 -0.000465173 6252.84) (-0.000851195 -0.000851195 6252.33) (-0.00116445 -0.00116445 6251.92)