# Probe 0 (0.0015 0.0015 0)
# Probe 1 (0.0015 0.0015 0.002)
# Probe 2 (0.0015 0.0015 0.004)
# Probe 3 (0.0015 0.0015 0.006)
# Probe 4 (0.0015 0.0015 0.008)
# Probe 5 (0.0015 0.0015 0.01)
# Probe 6 (0.0015 0.0015 0.012)
# Probe 7 (0.0015 0.0015 0.014)
# Probe 8 (0.0015 0.0015 0.016)
# Probe 9 (0.0015 0.0015 0.018)
# Probe 10 (0.0015 0.0015 0.02)
# Time        0             1             2             3             4             5             6             7             8             9             10           
50            (-7.54338e-12 9.46056e-12 4.0496e-12) (-7.54338e-12 9.46056e-12 4.0496e-12) (1.02172e-11 -1.02133e-11 6.23842e-12) (-8.34803e-12 -4.34171e-14 -4.15023e-12) (-1.00438e-11 1.19506e-13 -3.85135e-12) (8.49059e-12 1.19647e-12 -3.96434e-11) (2.03166e-11 1.00191e-11 -9.058e-11) (9.21555e-12 -2.77813e-14 -9.79942e-11) (-9.03778e-12 -1.02147e-11 -7.77174e-11) (1.8703e-13 -9.24631e-12 -7.44346e-11) (-1.8745e-11 9.11224e-14 -9.60906e-11)
100           (-3.04098e-14 1.12023e-12 -2.52146e-11) (-3.04098e-14 1.12023e-12 -2.52146e-11) (2.75836e-12 8.39956e-12 -3.49567e-11) (9.95716e-13 -1.67801e-11 -4.73868e-11) (8.47788e-12 8.40685e-12 -3.91269e-11) (1.01775e-11 1.95714e-11 -4.16957e-11) (-1.12417e-12 -1.14911e-12 -7.55042e-11) (-2.72051e-13 1.02667e-11 -1.01664e-10) (-8.29666e-12 -9.55601e-12 -1.1494e-10) (2.6522e-13 9.19367e-12 -1.22077e-10) (-3.96539e-14 -1.94349e-11 -1.15425e-10)
150           (8.29318e-12 -1.0068e-11 8.25369e-12) (8.29318e-12 -1.0068e-11 8.25369e-12) (-1.88415e-12 -7.86199e-13 2.80977e-11) (-9.27067e-12 -8.25091e-12 3.03557e-11) (1.10633e-12 7.77766e-12 2.72089e-11) (1.9766e-11 -1.10288e-11 2.29684e-11) (1.02116e-11 9.38168e-12 1.36701e-11) (-4.0647e-13 1.02265e-11 1.28216e-11) (9.22728e-12 1.73374e-11 8.43296e-12) (9.02351e-12 -1.75789e-11 8.11947e-12) (-3.66626e-14 -1.86007e-11 1.86851e-11)
200           (-1.86965e-11 -1.10125e-11 8.48653e-12) (-1.86965e-11 -1.10125e-11 8.48653e-12) (-1.66253e-12 -3.03906e-12 1.20205e-11) (-1.01135e-11 9.21153e-12 -7.8465e-12) (-6.16812e-13 7.04304e-13 -3.60277e-12) (2.89438e-11 2.14225e-15 4.59389e-13) (-8.6492e-14 -1.02341e-12 8.69986e-12) (-2.07408e-11 -9.37871e-13 1.28003e-11) (-1.78124e-11 1.11483e-11 -1.23833e-12) (9.42735e-12 -1.51404e-12 -1.38676e-11) (9.41409e-12 -9.26348e-12 -1.54762e-11)
250           (-2.58093e-13 1.77674e-11 -1.93195e-13) (-2.58093e-13 1.77674e-11 -1.93195e-13) (-8.88892e-13 -9.79625e-13 -5.37332e-12) (1.75847e-11 1.03536e-11 -4.07334e-12) (-1.86602e-11 8.36021e-12 2.46891e-12) (1.12612e-12 -8.54703e-13 7.68677e-12) (-1.97333e-11 -1.03572e-11 -2.93031e-11) (-1.70108e-11 -1.11225e-12 -5.95342e-11) (8.49329e-12 -1.07151e-12 -6.54538e-11) (-7.42696e-13 -1.82711e-11 -9.52754e-11) (8.02826e-14 7.97855e-13 -1.20714e-10)
300           (8.47212e-12 1.94374e-11 -2.04145e-11) (8.47212e-12 1.94374e-11 -2.04145e-11) (-8.1908e-13 8.39725e-12 -2.96459e-11) (-9.37172e-12 -8.3e-12 -1.9356e-11) (-8.89225e-15 7.96724e-14 -2.84865e-11) (-9.6531e-12 1.91882e-11 -2.57539e-11) (7.44873e-12 -3.65559e-13 -1.99507e-11) (8.08654e-12 -9.35729e-12 -1.68676e-11) (2.85836e-11 8.26838e-12 -5.0662e-11) (8.79901e-12 -1.65165e-11 -7.99352e-11) (-1.39962e-13 -8.36238e-12 -6.02446e-11)
350           (1.85306e-11 -1.94274e-11 -5.49881e-12) (1.85306e-11 -1.94274e-11 -5.49881e-12) (-1.89261e-11 -8.42037e-12 -2.12088e-11) (-6.03537e-13 -1.02443e-11 -4.15703e-11) (-9.08465e-13 -1.03403e-11 -5.59303e-11) (-8.41313e-12 -1.00105e-11 -6.98952e-11) (1.82358e-11 9.24701e-12 -8.76438e-11) (-2.06543e-11 1.42489e-14 -9.34112e-11) (-1.05182e-11 9.25424e-12 -1.06686e-10) (-8.70883e-13 1.2112e-12 -1.56477e-10) (-8.54184e-12 -1.0098e-11 -1.98387e-10)
400           (1.12223e-11 1.76818e-12 -8.79555e-13) (1.12223e-11 1.76818e-12 -8.79555e-13) (-8.49874e-13 9.44409e-12 -7.07775e-12) (9.13907e-12 1.11442e-11 -2.06472e-11) (8.22729e-12 9.12221e-12 -2.42736e-11) (-9.08969e-12 -9.35659e-12 -5.76139e-11) (-2.70945e-12 1.98093e-11 -7.43932e-11) (-1.4118e-14 9.21195e-12 -7.58163e-11) (8.93192e-13 -1.08391e-12 -6.80353e-11) (1.12617e-11 -8.47554e-13 -4.52996e-11) (-9.26771e-12 -8.38373e-12 -5.54907e-11)
450           (-1.91128e-12 -1.01108e-12 -4.26694e-13) (-1.91128e-12 -1.01108e-12 -4.26694e-13) (2.22288e-13 -8.4443e-12 -1.64955e-11) (-1.87933e-11 9.21394e-12 -2.88772e-12) (9.29898e-12 1.88506e-11 5.75812e-12) (9.21596e-12 8.65556e-13 7.82486e-12) (-1.02693e-11 -1.7298e-13 1.85064e-11) (-2.80158e-11 9.25007e-12 1.42129e-11) (-1.02548e-12 -7.71343e-15 6.70418e-12) (-8.15132e-12 1.85178e-11 6.80303e-12) (1.86709e-11 1.86494e-11 -4.34089e-12)
500           (-9.35205e-12 1.0376e-11 1.42813e-11) (-9.35205e-12 1.0376e-11 1.42813e-11) (1.13428e-11 7.35944e-12 4.19692e-11) (-9.31491e-12 -9.19881e-12 4.6656e-11) (9.23979e-12 -2.76176e-12 2.19924e-11) (8.61247e-12 1.0251e-11 -8.31364e-12) (-9.34955e-12 1.83596e-11 -3.37512e-11) (-1.16214e-12 1.84618e-11 -5.46467e-11) (9.06327e-12 8.38292e-12 -6.72629e-11) (7.44368e-12 -6.31619e-13 -9.19938e-11) (-7.35387e-13 -7.89887e-12 -1.06918e-10)
550           (-8.9546e-13 9.543e-12 9.43584e-12) (-8.9546e-13 9.543e-12 9.43584e-12) (8.50225e-12 -2.78902e-11 1.3316e-11) (-1.22424e-13 -2.78504e-11 3.64967e-11) (1.02958e-11 1.01707e-11 5.3889e-11) (9.16303e-12 9.2709e-13 5.5708e-11) (1.02961e-11 -1.20607e-11 4.60583e-11) (-1.20311e-12 1.82098e-12 3.65452e-11) (-1.02119e-11 1.08895e-11 3.75793e-11) (-9.342e-12 1.77859e-11 6.00327e-11) (9.28882e-12 9.30865e-13 7.48935e-11)
600           (1.02844e-12 -1.03346e-11 -8.77959e-12) (1.02844e-12 -1.03346e-11 -8.77959e-12) (-2.96038e-11 -1.01984e-11 -4.30562e-11) (-1.03977e-11 1.70874e-12 -4.74498e-11) (-2.25895e-13 1.11021e-11 -4.11201e-11) (-3.41212e-14 -1.94108e-11 -4.44241e-11) (-9.00767e-14 -1.21069e-12 -6.99935e-11) (1.76447e-11 -1.10609e-12 -8.40756e-11) (1.77388e-11 7.41229e-12 -9.67213e-11) (9.38312e-12 9.27613e-12 -9.60151e-11) (-8.42059e-12 -1.01556e-11 -1.03075e-10)
650           (1.02174e-11 1.16565e-12 -5.63666e-12) (1.02174e-11 1.16565e-12 -5.63666e-12) (1.05925e-11 -1.10879e-14 -1.26874e-11) (7.20313e-13 9.09837e-12 -5.8664e-12) (3.7731e-13 -7.47683e-12 -1.29295e-11) (2.78477e-12 8.31637e-14 -1.85491e-11) (1.12286e-11 -1.15837e-12 -2.18909e-11) (1.95281e-11 1.94241e-12 1.02375e-11) (-1.6322e-12 9.93622e-12 2.22172e-11) (-2.66706e-12 1.02886e-12 4.4476e-11) (-2.06277e-11 2.02714e-11 6.06517e-11)
700           (7.55379e-12 -3.04558e-11 -4.97826e-12) (7.55379e-12 -3.04558e-11 -4.97826e-12) (-8.59634e-14 8.44067e-12 -1.59402e-11) (-7.42082e-12 -1.01763e-11 6.25905e-12) (-1.87623e-13 -8.51618e-12 2.2091e-11) (9.18296e-12 7.71679e-13 1.34986e-11) (-1.01441e-12 9.27587e-12 4.59e-12) (-9.39719e-12 6.57403e-12 -3.86144e-12) (1.00146e-12 8.36956e-12 1.24326e-11) (-4.89376e-13 -1.75446e-11 3.86672e-11) (-9.99116e-12 -8.58472e-12 4.20143e-11)
750           (-1.53985e-12 9.47466e-14 1.00757e-11) (-1.53985e-12 9.47466e-14 1.00757e-11) (-7.20124e-13 9.56147e-12 7.14364e-12) (-9.18243e-12 -1.66765e-12 -1.03236e-11) (2.71847e-14 2.14101e-12 -4.17813e-12) (-1.1228e-11 -1.86866e-11 -2.44398e-11) (-9.39728e-12 -9.45948e-12 -2.11002e-11) (-1.86689e-11 9.553e-12 -4.68466e-11) (-1.96306e-12 1.86523e-11 -6.89484e-11) (-9.13439e-12 9.35798e-12 -6.47633e-11) (8.99313e-13 2.99331e-13 -8.09872e-11)
800           (2.68883e-15 1.17876e-12 -4.81363e-12) (2.68883e-15 1.17876e-12 -4.81363e-12) (9.14564e-12 8.53765e-12 -2.74799e-11) (2.12078e-11 9.21018e-12 -3.10978e-11) (1.93836e-11 1.88475e-11 -2.01084e-11) (9.35951e-12 2.08358e-12 -5.11328e-11) (-2.32402e-13 -1.45872e-13 -9.59235e-11) (7.45977e-13 1.86649e-12 -1.07632e-10) (-1.04001e-12 5.74049e-13 -1.21604e-10) (-8.92551e-12 -9.14127e-12 -1.61317e-10) (-1.03399e-11 9.2255e-13 -1.77014e-10)
850           (9.39798e-12 9.383e-12 3.22433e-12) (9.39798e-12 9.383e-12 3.22433e-12) (1.02414e-11 -1.67176e-11 -1.74824e-11) (8.27901e-12 -1.00432e-11 -4.21587e-11) (1.11506e-12 8.89805e-13 -9.37073e-12) (1.80764e-12 -3.29447e-13 -2.03383e-11) (-1.91046e-11 -9.47279e-12 -3.04673e-11) (8.38891e-12 1.06726e-11 -2.79462e-11) (1.94484e-11 9.83641e-12 -4.22183e-11) (-8.46528e-12 1.06528e-12 -4.72668e-11) (1.56837e-11 6.75584e-14 -4.52818e-11)
900           (8.57852e-12 2.08682e-13 4.48898e-13) (8.57852e-12 2.08682e-13 4.48898e-13) (-9.54603e-12 1.96277e-11 1.36735e-11) (8.3086e-12 1.71448e-12 3.09233e-11) (-1.67442e-12 8.47152e-12 1.52539e-11) (-8.5739e-12 -1.67573e-11 7.47754e-12) (9.03536e-13 -1.08279e-12 2.51518e-11) (1.93838e-11 2.70106e-11 -5.73244e-12) (-1.95212e-11 -1.05867e-13 -1.11641e-12) (-1.00118e-11 1.9643e-11 -4.89387e-12) (-1.85297e-12 1.75142e-11 -2.15887e-11)
950           (-1.00717e-11 9.26026e-13 -8.82918e-12) (-1.00717e-11 9.26026e-13 -8.82918e-12) (-1.77457e-12 8.50692e-12 -4.4648e-12) (8.35535e-13 -1.02325e-11 3.15756e-11) (8.32955e-12 8.29325e-13 3.40116e-11) (3.58536e-16 1.8936e-12 2.94861e-11) (-1.57527e-11 8.20954e-12 8.29978e-12) (1.11143e-11 -1.3311e-13 -1.94622e-11) (8.30319e-12 -1.89597e-11 -9.55945e-12) (-7.22447e-13 -8.52315e-13 -3.655e-11) (-1.36837e-13 1.11986e-11 -5.26692e-11)
1000          (-8.20816e-13 9.16789e-12 -5.40782e-13) (-8.20816e-13 9.16789e-12 -5.40782e-13) (-9.48459e-12 -9.57632e-12 -1.01631e-11) (2.88417e-11 1.7809e-11 -4.37037e-11) (-1.09916e-11 -3.8073e-14 -2.7652e-11) (-2.621e-14 6.2305e-13 -4.69533e-12) (9.21176e-12 8.63047e-13 -4.68239e-12) (8.23623e-12 -1.02846e-11 -9.72833e-12) (-8.38853e-12 -8.49325e-12 -1.97567e-11) (-1.18984e-11 -1.00252e-11 -3.95795e-11) (-8.28092e-13 1.1421e-12 -8.41219e-11)
1050          (1.01085e-11 1.00153e-11 -1.61389e-11) (1.01085e-11 1.00153e-11 -1.61389e-11) (1.86509e-11 -1.01639e-11 -1.94261e-11) (9.18467e-15 1.00384e-11 -8.79211e-12) (1.78604e-14 2.32368e-14 -4.07253e-11) (-1.65747e-11 -8.51417e-12 -4.16398e-11) (-1.94379e-12 -1.12965e-12 -5.59767e-11) (9.00066e-12 -1.08317e-11 -7.73681e-11) (2.88348e-12 -1.11013e-11 -7.13233e-11) (-5.5367e-13 9.48744e-12 -7.84763e-11) (1.94733e-11 8.41045e-13 -8.93691e-11)
1100          (9.37919e-12 -7.54986e-12 5.42924e-14) (9.37919e-12 -7.54986e-12 5.42924e-14) (-8.31754e-12 8.23118e-12 -6.93506e-13) (5.76585e-13 7.82678e-14 2.53506e-14) (-1.87468e-11 -8.69504e-12 2.31135e-11) (7.55676e-14 1.16946e-12 8.72255e-12) (8.30789e-12 -1.04849e-11 -2.20746e-11) (1.07755e-11 -9.51744e-12 6.06947e-12) (-9.15847e-12 9.0142e-12 1.72691e-11) (-7.72934e-13 -9.02066e-12 -3.78066e-12) (7.22877e-13 -9.23994e-12 -1.60249e-11)
1150          (1.76407e-14 -8.3667e-12 -1.74293e-12) (1.76407e-14 -8.3667e-12 -1.74293e-12) (1.00729e-11 8.35692e-12 -3.41596e-12) (-1.01505e-11 8.39793e-12 7.56583e-12) (-9.29102e-12 -1.68166e-11 -5.83618e-13) (-9.28053e-12 -5.41038e-14 2.18833e-11) (-9.62498e-12 8.1918e-12 3.03769e-11) (9.93519e-12 8.23666e-12 2.44062e-11) (-7.03547e-13 9.18821e-12 8.48546e-12) (1.11631e-11 1.06021e-14 -1.93213e-12) (8.97473e-12 -8.53916e-12 1.90653e-11)
1200          (-1.03636e-11 2.12569e-11 -5.94694e-12) (-1.03636e-11 2.12569e-11 -5.94694e-12) (1.01004e-12 1.28655e-13 -1.51967e-11) (9.37682e-12 1.96055e-11 -5.10135e-11) (-1.02883e-11 1.03879e-11 -5.29342e-11) (-1.91096e-14 -7.34101e-12 -8.19897e-11) (-1.21299e-12 9.81085e-12 -9.45489e-11) (-9.11383e-12 1.07013e-13 -6.42143e-11) (-1.04498e-11 -1.33404e-12 -7.87902e-11) (-1.84684e-11 -9.29839e-13 -1.14035e-10) (-3.88554e-14 1.91138e-13 -1.23061e-10)
1250          (-2.03557e-11 -6.55783e-13 -4.54262e-12) (-2.03557e-11 -6.55783e-13 -4.54262e-12) (-1.04606e-11 9.442e-12 -4.11652e-11) (-1.85427e-11 8.32426e-12 -4.80504e-11) (9.11979e-12 -1.79577e-11 -6.4981e-11) (-9.17282e-12 8.53738e-13 -9.4012e-11) (-2.17569e-12 -9.61636e-12 -9.09496e-11) (7.01327e-13 -8.13057e-12 -1.07018e-10) (-2.38389e-13 1.10308e-11 -8.93662e-11) (8.68687e-12 -1.85345e-12 -7.80179e-11) (-1.98294e-14 -9.40274e-12 -6.62879e-11)
1300          (1.9856e-11 -8.50522e-14 -9.97416e-13) (1.9856e-11 -8.50522e-14 -9.97416e-13) (8.35028e-12 1.03756e-11 -1.36249e-12) (-8.75838e-12 8.94754e-13 9.60206e-12) (-8.71857e-14 1.85309e-12 2.10607e-11) (7.94111e-12 8.277e-12 2.17827e-11) (2.76363e-11 -1.00954e-11 1.0389e-11) (9.00549e-12 -1.04117e-11 9.33472e-12) (-1.03331e-11 5.52898e-13 2.21073e-11) (-9.2582e-12 -1.82608e-11 1.63052e-11) (9.41274e-12 -1.69738e-13 -2.75302e-11)
1350          (-1.94807e-11 1.75035e-11 2.88114e-14) (-1.94807e-11 1.75035e-11 2.88114e-14) (-8.80102e-13 -1.84883e-12 -4.95952e-12) (-8.90207e-12 2.11413e-13 -4.47134e-11) (-1.76737e-12 -8.26634e-13 -6.14585e-11) (9.31945e-12 9.21875e-12 -7.63777e-11) (-1.05192e-12 1.76659e-12 -9.54252e-11) (-9.77398e-14 1.67859e-13 -7.13453e-11) (2.94185e-12 1.00863e-11 -7.33117e-11) (9.34667e-12 -8.03785e-12 -9.83446e-11) (1.03987e-12 2.02509e-12 -1.04959e-10)
1400          (1.04177e-12 9.24613e-12 4.38194e-12) (1.04177e-12 9.24613e-12 4.38194e-12) (-1.96644e-12 1.91329e-12 6.15716e-12) (-1.05261e-12 -8.41614e-12 1.3495e-11) (1.94342e-11 1.27586e-12 1.02467e-11) (5.85464e-12 -8.27011e-13 -9.37605e-12) (1.08939e-11 9.87109e-12 -3.27783e-11) (-1.14493e-13 1.10681e-12 -4.15962e-11) (1.04858e-12 -1.14821e-11 -2.6647e-11) (7.92211e-14 -7.87706e-12 -2.83102e-11) (9.08832e-12 -9.96976e-13 -2.59069e-11)
1450          (9.59076e-12 -1.9428e-11 -4.37263e-12) (9.59076e-12 -1.9428e-11 -4.37263e-12) (-7.98474e-13 -1.01991e-11 -2.8243e-11) (2.78171e-14 5.90312e-14 -4.70218e-11) (9.80983e-13 1.12858e-11 -4.17138e-11) (1.95015e-11 5.69002e-13 -6.31595e-11) (9.17953e-12 -1.04502e-13 -9.75149e-11) (-1.0798e-11 8.48304e-13 -7.72087e-11) (-9.50063e-12 -7.93483e-12 -3.35379e-11) (-1.00312e-11 -9.24225e-12 -3.87398e-11) (-2.03744e-11 -1.75075e-11 -5.97172e-11)
1500          (1.03041e-11 -7.41217e-12 -1.06077e-11) (1.03041e-11 -7.41217e-12 -1.06077e-11) (-2.31591e-13 -2.01818e-13 -2.42381e-11) (1.76388e-11 -8.11602e-13 -3.09034e-11) (-8.69708e-13 -7.17032e-13 -1.81739e-11) (-9.91715e-12 6.15944e-13 6.95738e-13) (-1.25573e-12 -9.55291e-12 6.82092e-12) (-9.4767e-12 -1.00442e-11 -1.54622e-11) (-7.58445e-12 9.27867e-12 -3.97698e-11) (-1.85178e-11 9.40609e-13 -5.5606e-11) (1.00769e-11 7.36673e-12 -6.48785e-11)
1550          (-8.23226e-12 -1.01439e-11 1.31099e-11) (-8.23226e-12 -1.01439e-11 1.31099e-11) (7.5322e-12 1.87046e-11 2.04027e-11) (8.32522e-12 1.97079e-11 4.56089e-12) (-4.07659e-14 -9.3352e-12 1.75506e-11) (-1.93645e-11 -9.07229e-12 2.03225e-11) (-9.46678e-12 7.59455e-13 -3.40919e-12) (1.93543e-11 -9.32125e-12 -2.55017e-11) (9.03909e-12 -1.08662e-11 -4.95623e-11) (2.70033e-13 -2.87611e-11 -7.41179e-11) (-2.08768e-13 -7.28448e-13 -1.00853e-10)
1600          (-9.19987e-12 1.41402e-13 -5.58189e-12) (-9.19987e-12 1.41402e-13 -5.58189e-12) (-1.01064e-11 8.50619e-12 -1.51617e-11) (9.47381e-12 1.73463e-11 -4.33173e-11) (-9.48023e-12 -1.79653e-12 -3.27344e-11) (-1.84535e-11 -7.3317e-12 -2.89301e-11) (7.29326e-13 9.88413e-12 -4.00739e-11) (-2.60915e-11 -9.68615e-13 -5.44678e-11) (9.23417e-12 -8.55471e-12 -9.27826e-11) (1.47608e-13 -8.06056e-12 -1.16221e-10) (1.75008e-11 -1.00346e-11 -1.17802e-10)
1650          (-7.48174e-12 -3.02914e-13 3.9915e-12) (-7.48174e-12 -3.02914e-13 3.9915e-12) (-9.51567e-12 -7.25788e-12 7.35168e-12) (-2.76998e-12 -1.00168e-11 9.42522e-12) (-7.77086e-13 8.12697e-13 1.01134e-11) (9.21013e-12 1.0276e-11 8.6713e-12) (-4.85946e-13 -1.03371e-11 8.63757e-12) (-1.86786e-11 -8.3907e-12 -1.99767e-11) (-9.49375e-12 -1.20811e-11 -4.37221e-11) (5.72852e-14 7.89024e-12 -5.82254e-11) (-8.55065e-12 -9.32579e-12 -4.26574e-11)
1700          (-1.15019e-12 9.83537e-12 -9.65651e-12) (-1.15019e-12 9.83537e-12 -9.65651e-12) (-7.66691e-12 1.02321e-11 -2.77392e-11) (1.96166e-11 1.01959e-11 -5.04974e-11) (1.03301e-12 1.94993e-11 -6.15217e-11) (1.02124e-11 1.96779e-11 -6.8356e-11) (9.12092e-12 -3.0462e-12 -1.01252e-10) (-1.92606e-12 -1.0982e-11 -6.57841e-11) (1.7678e-11 9.06392e-12 -2.2374e-11) (2.22033e-13 1.70988e-11 -3.35542e-11) (-1.02178e-11 9.45485e-12 -1.64084e-11)
1750          (1.11878e-12 8.74881e-12 -3.69802e-11) (1.11878e-12 8.74881e-12 -3.69802e-11) (-9.37498e-12 1.59383e-11 -5.20421e-11) (-1.66994e-12 9.76392e-13 -5.05583e-11) (2.02531e-11 9.06837e-12 -7.55403e-11) (-1.02173e-11 -7.15775e-12 -1.396e-10) (1.94657e-11 -1.80279e-13 -1.4924e-10) (-7.55665e-12 8.39423e-12 -1.426e-10) (-8.44947e-12 9.44268e-13 -1.55477e-10) (1.238e-12 9.26697e-12 -1.55447e-10) (1.26423e-13 -8.53811e-12 -1.52203e-10)
1800          (-1.03838e-11 -1.80349e-12 -1.2212e-11) (-1.03838e-11 -1.80349e-12 -1.2212e-11) (9.19648e-12 -1.0401e-11 -1.14205e-11) (-9.2428e-13 8.6789e-14 -3.16218e-11) (8.18751e-12 -9.59622e-13 -5.9378e-11) (-5.53057e-14 2.96858e-11 -6.89599e-11) (-1.96495e-11 -8.49633e-12 -1.06847e-10) (9.34388e-12 8.47118e-12 -1.21828e-10) (-1.00426e-11 -1.04543e-11 -1.25401e-10) (8.52597e-12 -1.84361e-11 -1.23574e-10) (1.07436e-12 -1.02568e-11 -1.15397e-10)
1850          (-1.86299e-11 1.12763e-12 -8.81134e-12) (-1.86299e-11 1.12763e-12 -8.81134e-12) (2.43711e-12 -9.24601e-12 -2.61021e-12) (-1.69966e-11 -7.60228e-12 1.65786e-11) (9.66661e-13 -8.34927e-13 8.38412e-12) (1.00533e-11 -1.11765e-11 3.03734e-11) (-2.88797e-14 -8.75745e-12 4.45004e-11) (-9.46002e-12 1.76459e-12 4.86886e-11) (-9.48265e-12 8.50026e-12 5.88785e-11) (1.13692e-11 2.02282e-13 4.79454e-11) (-8.30516e-12 1.53324e-12 5.17307e-11)
1900          (1.73214e-12 1.02143e-11 1.0951e-11) (1.73214e-12 1.02143e-11 1.0951e-11) (1.92793e-12 -9.18528e-12 6.38656e-12) (-1.00988e-11 -9.53366e-12 1.05644e-11) (9.26096e-12 1.0185e-11 3.09839e-11) (1.63918e-14 -6.10911e-14 2.08534e-12) (-1.0562e-12 -2.05989e-11 -2.55093e-11) (9.28972e-12 9.30479e-13 -1.73324e-12) (-9.99384e-12 -1.78775e-11 -2.7842e-12) (2.84622e-11 2.89501e-12 -1.76279e-11) (1.12729e-11 -7.0031e-13 -6.92686e-11)
1950          (9.24438e-12 -1.78003e-12 -1.05759e-12) (9.24438e-12 -1.78003e-12 -1.05759e-12) (2.28349e-14 -9.64757e-12 -1.66529e-11) (-1.90095e-12 6.63633e-13 -3.98763e-11) (8.42993e-12 -8.23265e-13 -2.94452e-11) (-7.62509e-12 -1.67105e-13 -3.29264e-11) (-8.68624e-12 -8.81402e-12 -3.02026e-11) (6.5619e-13 -8.49745e-12 -3.5265e-11) (1.00642e-11 -1.08896e-12 -7.71836e-11) (-5.86623e-13 -6.6059e-13 -8.67922e-11) (1.04075e-12 1.97097e-11 -8.55611e-11)
2000          (9.28517e-12 8.31893e-12 -2.38277e-13) (9.28517e-12 8.31893e-12 -2.38277e-13) (-1.02634e-11 -3.17399e-13 2.60981e-12) (4.74092e-14 8.34658e-15 2.33017e-11) (-1.97865e-12 1.11619e-11 3.36681e-11) (1.76964e-11 1.69205e-11 5.41572e-11) (-9.52873e-12 8.17748e-12 8.18806e-11) (-1.84133e-11 6.79723e-14 6.99994e-11) (-6.6715e-14 -1.04935e-11 5.0757e-11) (1.16831e-12 8.39667e-12 2.81192e-11) (9.18502e-12 -1.00638e-11 3.7507e-11)
2050          (-1.02598e-11 -8.22508e-12 -4.46999e-12) (-1.02598e-11 -8.22508e-12 -4.46999e-12) (1.01085e-11 9.14975e-12 -1.50479e-11) (9.43917e-14 1.60592e-14 -3.65652e-11) (9.19472e-12 8.51735e-12 -4.35429e-11) (9.41309e-12 -8.09596e-12 -5.27497e-11) (9.40974e-12 1.02111e-11 -8.99971e-11) (-1.35136e-12 1.85332e-11 -9.84183e-11) (-9.29188e-12 -8.42557e-12 -9.0456e-11) (-1.01532e-11 -5.6159e-13 -1.09721e-10) (-5.25619e-14 -1.78067e-11 -1.42734e-10)
2100          (9.30522e-12 9.93292e-13 -5.35511e-12) (9.30522e-12 9.93292e-13 -5.35511e-12) (7.57217e-12 1.07351e-12 -6.92635e-12) (-1.11296e-11 -3.14102e-13 1.09658e-11) (-1.01453e-13 1.44979e-13 3.16723e-11) (-1.00415e-11 9.19709e-12 3.17907e-11) (-1.16896e-12 -3.40033e-13 2.06054e-11) (1.47133e-12 9.41402e-12 -2.11384e-11) (9.12775e-12 -1.21949e-12 -3.51571e-11) (-7.72662e-13 -8.40654e-12 -6.96908e-11) (9.90415e-13 -7.48505e-12 -7.67269e-11)
2150          (-9.33628e-12 -5.69276e-13 -4.48555e-14) (-9.33628e-12 -5.69276e-13 -4.48555e-14) (9.49759e-12 8.92278e-12 -1.04283e-11) (9.37155e-12 1.01125e-11 -4.86396e-11) (1.84868e-11 5.70039e-14 -7.23643e-11) (9.22634e-12 1.15128e-12 -1.12279e-10) (-8.65368e-12 9.32103e-12 -1.34131e-10) (2.78588e-11 9.37028e-12 -1.27585e-10) (8.40918e-12 -1.96405e-11 -1.18718e-10) (9.27993e-12 -5.49801e-13 -1.05509e-10) (-1.46537e-12 -1.9374e-11 -1.12798e-10)
2200          (8.43229e-12 1.92745e-11 -5.00669e-12) (8.43229e-12 1.92745e-11 -5.00669e-12) (8.26151e-12 -8.6502e-12 -6.01027e-12) (1.04145e-11 -9.48491e-12 -2.17691e-11) (-9.26595e-13 -9.95553e-13 -2.52515e-11) (-8.45682e-12 -1.01986e-11 -2.40006e-11) (-6.966e-13 -1.70613e-13 -3.22228e-11) (-2.06828e-11 1.10715e-11 -3.98701e-11) (-2.71135e-11 -2.72973e-11 -4.64267e-11) (-7.80958e-13 1.06651e-11 -6.42989e-11) (8.46367e-14 9.74073e-14 -6.69312e-11)
2250          (1.84922e-11 -1.12717e-11 1.93333e-11) (1.84922e-11 -1.12717e-11 1.93333e-11) (9.2472e-12 -1.02385e-11 -4.21514e-12) (1.00664e-11 -9.32819e-12 -4.40394e-11) (-8.44247e-12 -9.94584e-12 -4.88775e-11) (9.38054e-12 2.7764e-12 -6.82046e-11) (-1.05065e-11 -1.13553e-12 -5.95073e-11) (-1.03443e-13 -9.29598e-12 -4.44901e-11) (-9.27866e-12 9.26121e-12 -4.36469e-11) (-9.13169e-12 2.18099e-13 -3.01919e-11) (-1.44989e-13 -1.0154e-11 -6.45992e-11)
2300          (1.93778e-11 1.94868e-11 -9.16094e-12) (1.93778e-11 1.94868e-11 -9.16094e-12) (-1.01669e-11 6.18967e-13 -1.16049e-11) (1.86489e-11 -1.02086e-11 -2.03856e-11) (9.26537e-12 -8.55322e-12 -2.96118e-11) (-8.33048e-13 8.24036e-12 -4.35836e-11) (-1.02056e-12 1.87507e-11 -5.0582e-11) (1.08291e-11 1.93806e-11 -7.41201e-11) (9.23602e-12 -1.96806e-11 -7.82695e-11) (9.29957e-12 2.80777e-11 -7.20779e-11) (-1.02712e-11 1.27216e-13 -8.58972e-11)
2350          (1.86041e-11 -9.26124e-12 3.93038e-12) (1.86041e-11 -9.26124e-12 3.93038e-12) (-7.61481e-12 -1.00714e-11 6.07728e-12) (-1.92434e-11 -9.44527e-12 -5.80227e-12) (9.33553e-12 8.27286e-12 -2.20031e-11) (-9.03961e-14 -8.37967e-12 -4.86542e-11) (-1.03706e-11 8.90531e-13 -5.78255e-11) (1.13301e-13 -9.36158e-12 -5.87623e-11) (8.48592e-13 8.41125e-12 -3.81225e-11) (-9.22096e-12 8.39505e-12 -6.25312e-11) (7.18393e-12 -1.9363e-11 -6.21276e-11)
2400          (-3.34286e-13 2.1031e-12 -8.74172e-13) (-3.34286e-13 2.1031e-12 -8.74172e-13) (-8.30093e-12 1.09693e-12 -1.00682e-11) (8.89479e-12 -9.94492e-12 -4.04478e-11) (-1.84026e-11 -1.04986e-12 -4.95015e-11) (-8.03443e-13 1.86764e-11 -6.1279e-11) (-7.74193e-12 -8.50822e-12 -9.38275e-11) (-3.08231e-12 1.88072e-11 -1.06593e-10) (1.88212e-11 -8.7089e-12 -1.32961e-10) (-2.32888e-13 1.37326e-13 -1.43385e-10) (6.90937e-13 1.07011e-12 -1.40619e-10)
2450          (8.43732e-12 -9.3542e-12 -4.67869e-12) (8.43732e-12 -9.3542e-12 -4.67869e-12) (2.35681e-12 -2.03882e-11 -6.3909e-12) (-9.19828e-12 1.69236e-12 -5.3375e-12) (-2.31296e-13 1.57732e-11 -1.85122e-11) (-1.005e-11 1.03419e-12 -1.1834e-11) (9.0528e-13 -1.03339e-12 2.14318e-11) (-1.03777e-11 8.46967e-12 1.57225e-12) (1.01574e-11 -1.03723e-11 -6.53381e-12) (2.09136e-11 -1.02025e-11 -2.39655e-11) (9.34824e-12 -1.16476e-12 -4.28965e-11)
2500          (-6.59395e-14 1.82027e-12 -2.22996e-12) (-6.59395e-14 1.82027e-12 -2.22996e-12) (1.0148e-11 -9.92846e-12 -2.15604e-11) (-7.31196e-13 -8.86637e-13 -3.63279e-11) (1.75737e-11 8.55481e-12 -4.19605e-11) (-3.42711e-13 -2.19687e-12 -3.8973e-11) (8.41884e-12 1.75449e-11 -3.25773e-11) (1.85071e-12 -1.8558e-11 -1.85563e-11) (8.27067e-12 -1.04674e-11 -1.23892e-13) (-1.06329e-12 1.02409e-11 -3.28913e-11) (-2.73063e-12 1.7811e-12 -8.51895e-11)
2550          (-9.05091e-12 -1.69606e-11 8.34936e-12) (-9.05091e-12 -1.69606e-11 8.34936e-12) (8.54898e-12 9.05139e-12 7.24026e-12) (-9.45042e-12 8.13216e-12 -2.18047e-11) (-9.23627e-12 -9.17358e-12 -3.57359e-12) (2.97034e-13 9.377e-12 7.84802e-12) (-9.74145e-12 -1.11016e-14 6.91804e-12) (1.7961e-12 -1.78592e-11 2.76731e-11) (-1.63181e-13 -1.04511e-11 2.51405e-11) (-7.60064e-13 -2.08167e-14 1.29092e-11) (7.12236e-13 1.14211e-12 -7.93365e-12)
2600          (1.96491e-11 2.88183e-11 -9.09275e-12) (1.96491e-11 2.88183e-11 -9.09275e-12) (8.15005e-12 1.0493e-11 -1.8006e-11) (-6.80045e-13 -8.35177e-12 -1.77797e-11) (-2.87244e-11 -8.3695e-13 -7.09994e-12) (1.32007e-13 -1.67689e-11 -1.57721e-11) (1.74066e-11 6.82533e-13 -2.16844e-11) (8.29213e-12 -1.77317e-12 -3.45069e-11) (-1.10031e-14 8.37409e-12 -5.65863e-11) (-8.19912e-12 8.35158e-12 -8.09208e-11) (7.35026e-14 -8.45852e-12 -6.33909e-11)
2650          (-9.49089e-13 8.16392e-12 -4.19318e-12) (-9.49089e-13 8.16392e-12 -4.19318e-12) (1.02155e-11 1.87109e-11 -1.23711e-12) (-8.38375e-12 1.03486e-11 -1.73088e-11) (-1.07622e-12 -1.00591e-11 -3.09352e-11) (9.37204e-12 -1.03729e-12 -2.57937e-11) (8.25589e-12 -7.99498e-13 -1.13024e-11) (-9.65504e-12 2.02719e-11 -2.18176e-11) (1.01987e-11 -4.31862e-13 -4.60721e-11) (-2.90526e-11 -7.95652e-12 -5.79046e-11) (-1.43162e-12 2.69567e-11 -4.89986e-11)
2700          (-9.88714e-13 8.22422e-12 3.37799e-13) (-9.88714e-13 8.22422e-12 3.37799e-13) (-9.32985e-12 -1.22084e-14 -2.28886e-11) (-8.39785e-12 -3.72089e-13 -3.51664e-11) (8.47118e-12 1.00599e-11 -6.74822e-11) (-8.6233e-12 1.86138e-11 -9.05011e-11) (-1.88746e-12 -8.76023e-12 -8.87065e-11) (-8.32034e-13 1.02365e-11 -8.84389e-11) (2.96685e-11 -1.85725e-11 -1.07127e-10) (9.5813e-12 -1.00744e-11 -1.28481e-10) (-7.28858e-12 9.44721e-12 -1.29227e-10)
2750          (1.75073e-11 -9.2295e-13 -1.07612e-11) (1.75073e-11 -9.2295e-13 -1.07612e-11) (7.93952e-13 -4.01672e-13 -3.10158e-11) (9.05062e-12 1.96668e-11 -6.91103e-11) (-9.38649e-12 -9.24489e-12 -7.7231e-11) (-9.35753e-14 -5.85955e-13 -7.64296e-11) (-8.77132e-12 -1.9739e-11 -7.82295e-11) (-1.11726e-11 -2.00644e-11 -6.39693e-11) (-1.79215e-11 8.31824e-12 -8.62713e-11) (-1.06887e-11 -7.79659e-13 -1.10836e-10) (-1.85986e-12 8.40102e-12 -1.29914e-10)
2800          (1.06702e-13 1.9544e-11 3.85984e-12) (1.06702e-13 1.9544e-11 3.85984e-12) (-9.23815e-12 -1.28807e-14 -6.68897e-12) (-7.29506e-12 -9.32401e-12 -4.19904e-11) (9.89995e-13 -1.18622e-13 -6.2157e-11) (1.87411e-11 9.58821e-12 -1.01021e-10) (8.21e-12 1.09482e-13 -1.25672e-10) (-1.67566e-11 -8.58805e-12 -1.33246e-10) (-9.25654e-12 1.02809e-12 -1.21168e-10) (-1.09621e-13 1.81794e-12 -9.9291e-11) (-9.56938e-12 1.11792e-11 -8.69643e-11)
2850          (-9.32835e-12 -2.91261e-14 -6.81831e-12) (-9.32835e-12 -2.91261e-14 -6.81831e-12) (-9.26677e-12 -3.4875e-14 -1.36548e-11) (6.7618e-12 1.87583e-11 -2.04509e-11) (7.23732e-14 1.95779e-11 -3.74814e-11) (-1.03663e-11 1.83993e-11 -1.64085e-11) (-7.65109e-12 -9.40317e-12 -8.38151e-12) (7.39649e-13 -9.34793e-12 -1.29659e-11) (7.58006e-14 -8.53398e-12 -3.79996e-11) (8.49231e-13 1.03041e-11 -6.23327e-11) (-1.01725e-11 -1.03969e-11 -5.5364e-11)
2900          (-8.36966e-12 -8.6463e-13 -4.4352e-13) (-8.36966e-12 -8.6463e-13 -4.4352e-13) (5.64613e-14 -8.14521e-12 -1.01477e-11) (8.43878e-12 8.55829e-12 -1.80181e-11) (-6.68062e-13 -1.03871e-11 -5.47913e-11) (-2.88516e-13 -7.65337e-12 -9.48364e-11) (-1.21138e-13 1.10211e-11 -1.04227e-10) (-2.07363e-11 -8.66611e-12 -9.53921e-11) (2.38723e-13 -1.78305e-11 -8.31487e-11) (2.79837e-11 -9.14512e-12 -6.69016e-11) (-1.01877e-11 -1.12341e-12 -9.16058e-11)
2950          (-7.52095e-13 1.09713e-12 -3.67703e-12) (-7.52095e-13 1.09713e-12 -3.67703e-12) (1.11673e-11 9.3354e-12 -2.84681e-11) (1.84204e-11 -1.02003e-11 -3.10883e-11) (1.77618e-11 1.61718e-12 -3.22761e-11) (1.84151e-11 -1.0225e-11 -5.81637e-11) (2.8585e-11 9.7314e-12 -8.55395e-11) (1.0039e-13 1.03669e-11 -1.07923e-10) (-1.02079e-11 -1.04418e-11 -1.41609e-10) (1.29126e-13 1.14712e-11 -1.61115e-10) (-1.83571e-11 -1.10272e-12 -1.57786e-10)
3000          (-1.06239e-12 8.26279e-12 -2.36253e-11) (-1.06239e-12 8.26279e-12 -2.36253e-11) (8.26258e-12 -9.36504e-12 -3.44484e-11) (-9.27446e-13 1.94969e-11 -3.2449e-11) (-7.5018e-13 9.29585e-12 -2.77391e-11) (1.14709e-13 -5.63857e-14 -2.21037e-11) (8.12272e-12 8.17404e-12 -1.5355e-11) (2.0341e-11 -1.76755e-14 3.4452e-12) (9.1592e-12 -9.28181e-12 -4.30894e-12) (-1.77031e-11 1.77914e-11 -1.52137e-11) (4.96658e-14 -1.00354e-11 3.43534e-12)
3050          (-1.92764e-12 -1.70443e-12 -4.1694e-12) (-1.92764e-12 -1.70443e-12 -4.1694e-12) (1.64738e-12 8.20338e-12 -1.67886e-11) (9.30183e-12 -1.0264e-11 -1.99974e-11) (1.02784e-11 1.77102e-11 -1.1261e-11) (1.96748e-11 -8.52316e-12 -1.0763e-11) (8.4596e-12 -8.43211e-12 -2.0094e-11) (9.20802e-12 -9.35902e-12 -3.50458e-11) (9.68942e-13 9.82845e-13 -3.89644e-11) (1.99384e-11 -8.18583e-12 -3.16293e-11) (1.9625e-11 -9.45307e-12 -3.55291e-11)
3100          (8.39967e-13 1.01435e-11 -9.35528e-12) (8.39967e-13 1.01435e-11 -9.35528e-12) (8.13491e-13 -1.01369e-11 -3.43761e-11) (1.84237e-13 7.26535e-12 -5.43215e-11) (7.5486e-13 9.11285e-13 -5.94788e-11) (-2.42499e-14 -9.30104e-12 -9.69687e-11) (-1.86718e-12 -1.82483e-12 -1.41368e-10) (-1.02635e-12 1.21835e-14 -1.42406e-10) (-9.88756e-12 -1.01704e-12 -1.42898e-10) (-7.77235e-13 9.49776e-13 -1.45508e-10) (1.76463e-11 9.79504e-13 -1.71943e-10)
3150          (-1.87679e-12 1.03766e-11 -4.61211e-13) (-1.87679e-12 1.03766e-11 -4.61211e-13) (9.33144e-13 1.02584e-11 -1.23685e-11) (1.6777e-12 8.37868e-12 -1.85643e-11) (1.93304e-13 8.82645e-13 -5.80535e-11) (9.94196e-13 -1.09547e-11 -7.433e-11) (-3.24008e-13 -1.9554e-11 -4.59752e-11) (-2.70972e-11 -5.57954e-14 -3.40144e-11) (1.86113e-11 1.1134e-11 -4.68976e-11) (8.43843e-12 -1.08689e-11 -5.39818e-11) (1.01767e-11 -1.29061e-14 -4.70788e-11)
3200          (-6.67345e-14 1.02852e-11 3.37554e-12) (-6.67345e-14 1.02852e-11 3.37554e-12) (-1.03316e-11 -1.96244e-11 -8.16194e-12) (-9.24342e-12 -1.20477e-11 -5.49665e-11) (9.24608e-13 9.19112e-13 -4.78201e-11) (-9.04253e-12 9.3464e-12 -4.42554e-11) (-8.31702e-12 -1.06695e-11 -6.55798e-11) (-7.62052e-12 1.15003e-12 -5.89949e-11) (-9.03614e-12 7.37035e-12 -5.59685e-11) (-1.01996e-11 -9.71985e-14 -7.0889e-11) (1.02618e-11 9.24238e-12 -6.35322e-11)
3250          (9.32049e-13 2.15885e-13 -2.38937e-11) (9.32049e-13 2.15885e-13 -2.38937e-11) (9.47723e-12 8.41886e-12 -5.56285e-11) (-1.01557e-11 -6.98175e-14 -5.10788e-11) (-9.16843e-13 8.1904e-12 -5.58279e-11) (1.00966e-11 8.93092e-12 -5.97083e-11) (-8.85542e-13 1.75803e-11 -5.21641e-11) (-3.01121e-12 -1.01051e-11 -7.75194e-11) (8.48218e-14 -8.37584e-12 -9.31843e-11) (-1.82918e-11 2.09604e-13 -8.87842e-11) (8.24968e-12 9.2227e-12 -1.03509e-10)