# Probe 0 (0.0015 0.0015 0)
# Probe 1 (0.0015 0.0015 0.01)
# Probe 2 (0.0015 0.0015 0.02)
# Probe 3 (0.0015 0.0015 0.03)
# Probe 4 (0.0015 0.0015 0.04)
# Probe 5 (0.0015 0.0015 0.05)
# Probe 6 (0.0015 0.0015 0.06)
# Probe 7 (0.0015 0.0015 0.07)
# Probe 8 (0.0015 0.0015 0.08)
# Probe 9 (0.0015 0.0015 0.09)
# Probe 10 (0.0015 0.0015 0.1)
# Time        0             1             2             3             4             5             6             7             8             9             10           
50            33711.4       67354.5       68908.4       68943.7       68944.9       68957.8       68972.7       68972.9       68977.9       70095.7       175992       
100           29668.2       65359.4       68790.7       68939.8       68945.5       68958.1       68972.4       68973.1       69008.2       72682.4       190016       
150           27339.9       63228.7       68566         68927.9       68945.8       68958.2       68972         68974.1       69097.8       76624.2       196654       
200           25795.9       61162.2       68233.3       68902.4       68945.2       68958.2       68971.5       68977.3       69286.9       81466.3       200655       
250           24682.9       59236.3       67805.2       68857.8       68942.8       68958.1       68971.2       68985.1       69611.8       86723.8       203398       
300           23834.2       57471.7       67300.5       68790.2       68937.7       68957.8       68971         69001.2       70098.6       92024.1       205427       
350           23160.6       55865.2       66738.6       68697         68928.5       68957.1       68971.3       69030.1       70760.4       97137.9       207006       
400           22610         54404.6       66137.7       68577.4       68914.1       68955.8       68972.4       69076.9       71599.5       101950        208280       
450           22148.9       53074         65511.3       68431.7       68893.4       68953.7       68974.6       69147         72604.9       106418        209337       
500           21755.6       51858.6       64871         68261         68865.2       68950.5       68978.7       69245.7       73760.4       110540        210231       
550           21415.1       50744.8       64225.5       68067.4       68828.8       68945.9       68985.4       69377.4       75044.9       114334        211001       
600           21116.6       49720.4       63581.4       67853.1       68783.6       68939.5       68995.5       69546.2       76436.2       117828        211672       
650           20852.2       48775         62943.4       67620.5       68729.2       68931.2       69010.1       69755.1       77912         121049        212265       
700           20615.8       47899.5       62315.1       67372.2       68665.5       68920.6       69030.3       70006         79451.7       124024        212793       
750           20402.8       47086         61698.9       67110.4       68592.5       68907.7       69057         70300.1       81036.8       126780        213268       
800           20209.6       46327.9       61096.3       66837.4       68510.3       68892.2       69091.5       70637.7       82650.9       129338        213698       
850           20033.3       45619.4       60508.4       66555.1       68419.4       68874.3       69134.8       71018.1       84280.5       131721        214089       
900           19871.7       44955.3       59935.8       66265.3       68320         68853.9       69187.8       71440.1       85914.2       133944        214447       
950           19722.7       44331.4       59378.8       65969.8       68212.8       68831.1       69251.6       71902.2       87542.8       136025        214776       
1000          19584.8       43743.9       58837.4       65669.8       68098.2       68806.3       69326.8       72402         89158.7       137978        215081       
1050          19456.7       43189.3       58311.5       65366.7       67976.9       68779.5       69414.3       72937.2       90756.1       139813        215363       
1100          19337.3       42664.8       57800.8       65061.5       67849.4       68751.2       69514.5       73505.1       92330.6       141542        215626       
1150          19225.6       42167.8       57305.1       64755.2       67716.5       68721.7       69627.9       74103         93878.7       143175        215872       
1200          19120.9       41695.9       56823.8       64448.7       67578.7       68691.3       69754.8       74728.1       95397.8       144720        216102       
1250          19022.5       41247.2       56356.7       64142.6       67436.6       68660.4       69895.5       75377.6       96886.2       146184        216318       
1300          18929.7       40819.8       55903.1       63837.6       67291         68629.6       70050         76048.8       98342.6       147574        216522       
1350          18842         40412.1       55462.7       63534.3       67142.3       68599.1       70218.3       76739         99766.3       148896        216714       
1400          18759         40022.7       55035         63233         66991.3       68569.5       70400.2       77445.7       101157        150155        216896       
1450          18680.3       39650.1       54619.5       62934.2       66838.4       68541.1       70595.5       78166.6       102515        151356        217069       
1500          18605.5       39293.4       54215.7       62638.3       66684.1       68514.3       70804.1       78899.4       103839        152503        217232       
1550          18534.3       38951.3       53823.3       62345.5       66529.1       68489.6       71025.4       79642         105132        153599        217388       
1600          18466.5       38622.8       53441.8       62056.2       66373.7       68467.3       71259.1       80392.4       106392        154650        217536       
1650          18401.7       38307.2       53070.8       61770.5       66218.4       68447.7       71504.8       81149         107621        155656        217678       
1700          18339.8       38003.7       52709.9       61488.7       66063.8       68431.2       71761.9       81909.9       108819        156623        217813       
1750          18280.5       37711.3       52358.7       61210.9       65910.1       68418         72029.9       82673.9       109987        157551        217943       
1800          18223.7       37429.6       52016.9       60937.3       65757.7       68408.5       72308.3       83439.4       111125        158444        218067       
1850          18169.1       37157.9       51684.1       60668         65607.1       68402.8       72596.6       84205.2       112236        159303        218186       
1900          18116.8       36895.6       51360.1       60403.1       65458.5       68401.1       72894         84970.2       113318        160131        218300       
1950          18066.4       36642.2       51044.4       60142.7       65312.2       68403.7       73200.2       85733.4       114374        160929        218410       
2000          18018         36397.2       50736.9       59886.8       65168.5       68410.6       73514.4       86493.9       115404        161699        218515       
2050          17971.3       36160.3       50437.3       59635.7       65027.7       68422         73836.1       87250.8       116408        162443        218617       
2100          17926.3       35930.8       50145.3       59389.3       64890         68438         74164.8       88003.5       117388        163163        218715       
2150          17882.8       35708.6       49860.6       59147.6       64755.6       68458.7       74499.9       88751.3       118345        163858        218810       
2200          17840.8       35493.2       49583         58910.8       64624.7       68484         74840.9       89493.5       119278        164531        218901       
2250          17800.4       35285         49313.5       58679.8       64498         68514.1       75187.2       90230         120189        165184        218989       
2300          17761.3       35083         49050.6       58453.8       64375.2       68549.1       75538.3       90960.1       121079        165816        219075       
2350          17723.4       34886.9       48794.3       58232.6       64256.2       68588.8       75893.9       91683.3       121948        166429        219158       
2400          17687         34697.6       48545.7       58017.5       64142         68633.1       76253.3       92399.5       122797        167024        219238       
2450          17651.2       34511.5       48300.3       57804.7       64030.5       68682.6       76616.2       93108.1       123625        167601        219315       
2500          17617         34332.9       48064         57599.6       63924.7       68736.3       76982.1       93809.2       124436        168162        219390       
2550          17583.7       34158.7       47832.8       57398.8       63822.8       68794.8       77350.7       94502.4       125227        168707        219463       
2600          17551.4       33989         47606.9       57202.5       63725.1       68857.8       77721.5       95187.7       126001        169237        219534       
2650          17520         33824         47386.7       57011.3       63631.8       68925.3       78094.2       95864.8       126758        169752        219603       
2700          17489.4       33663         47171.2       56824.3       63542.7       68997.2       78468.3       96533.4       127498        170253        219670       
2750          17459.8       33506.9       46961.9       56642.9       63458.3       69073.4       78843.6       97193.7       128221        170742        219735       
2800          17431         33354.6       46757.2       56465.7       63378.1       69153.7       79219.7       97845.5       128929        171217        219798       
2850          17402.9       33205.8       46557         56292.8       63302.1       69238.1       79596.3       98488.6       129621        171680        219859       
2900          17375.7       33061.7       46362.8       56125.7       63230.9       69326.3       79973.3       99123.3       130298        172131        219919       
2950          17349.2       32921         46173.2       55963.1       63163.9       69418.4       80350.3       99749.6       130961        172571        219977       
3000          17323.4       32783.9       45988.1       55804.9       63101.3       69514.2       80727         100367        131610        173000        220034       
3050          17298.2       32650.2       45807.6       55651.3       63042.9       69613.6       81103.2       100976        132245        173418        220089       
3100          17273.7       32519.8       45631.4       55502.1       62988.8       69716.5       81478.8       101577        132867        173827        220143       
3150          17249.9       32392.6       45459.6       55357.3       62938.9       69822.6       81853.4       102169        133476        174225        220196       
3200          17226.6       32268.5       45292         55217         62893.1       69932         82226.9       102752        134072        174614        220247       
3250          17203.9       32147.4       45128.5       55080.9       62851.3       70044.5       82599.1       103327        134656        174994        220297       
3300          17181.8       32029.3       44969.2       54949.2       62813.6       70159.9       82969.9       103894        135228        175365        220346       
3350          17160.3       31914.1       44813.8       54821.7       62779.9       70278.2       83339.1       104452        135788        175727        220394       
3400          17139.2       31801.6       44662.4       54698.3       62750.1       70399.1       83706.5       105002        136337        176082        220440       
3450          17118.7       31691.9       44514.9       54579.2       62724.1       70522.6       84072.1       105545        136875        176428        220486       
3500          17098.7       31584.8       44371.1       54464.1       62702         70648.6       84435.7       106079        137403        176766        220530       
3550          17079.1       31480.3       44231         54353         62683.5       70776.9       84797.3       106605        137920        177098        220573       
3600          17060.1       31378.3       44094.6       54245.9       62668.6       70907.5       85156.6       107123        138427        177421        220616       
3650          17041.5       31278.8       43961.8       54142.8       62657.3       71040.2       85513.7       107634        138924        177738        220657       
3700          17023.3       31181.7       43832.6       54043.5       62649.5       71174.8       85868.4       108137        139411        178048        220698       
3750          17005.6       31086.9       43706.8       53948         62645.1       71311.4       86220.7       108632        139889        178352        220737       
3800          16988.3       30994.5       43584.4       53856.3       62644.1       71449.8       86570.4       109120        140358        178649        220776       
3850          16971.4       30904.2       43465.3       53768.3       62646.3       71589.8       86917.6       109601        140817        178940        220814       
3900          16954.9       30816.2       43349.6       53683.9       62651.7       71731.5       87262.2       110074        141269        179225        220851       
3950          16938.8       30730.4       43237.1       53603         62660.2       71874.6       87604.1       110540        141711        179504        220888       
4000          16923.1       30646.6       43127.8       53525.7       62671.7       72019.1       87943.3       111000        142146        179777        220923       
4050          16907.7       30564.9       43021.6       53451.9       62686.2       72165         88279.8       111452        142572        180045        220958       
4100          16892.8       30485.3       42918.5       53381.5       62703.6       72312         88613.4       111898        142990        180307        220992       
4150          16878.2       30407.6       42818.4       53314.4       62723.7       72460.2       88944.2       112336        143401        180564        221026       
4200          16863.9       30331.9       42721.3       53250.6       62746.6       72609.5       89272.2       112769        143804        180816        221059       
4250          16850         30258.1       42627.1       53190         62772.2       72759.7       89597.4       113195        144200        181063        221091       
4300          16836.4       30186.1       42535.8       53132.5       62800.3       72910.7       89919.6       113614        144588        181306        221122       
4350          16823.2       30116         42447.3       53078.2       62831         73062.6       90239         114027        144970        181543        221153       
4400          16810.3       30047.9       42361.8       53027.1       62864         73215.1       90555.6       114434        145345        181776        221184       
4450          16797.7       29981.5       42279         52978.9       62899.3       73368.3       90869.3       114835        145713        182005        221213       
4500          16785.4       29916.9       42199         52933.7       62936.9       73521.9       91179.8       115230        146075        182229        221242       
4550          16773.4       29854         42121.5       52891.2       62976.8       73676.2       91487.7       115619        146430        182449        221271       
4600          16761.8       29792.7       42046.5       52851.6       63018.8       73831.1       91792.3       116002        146779        182665        221299       
4650          16750.4       29733.1       41974.2       52814.8       63062.9       73986.3       92094.6       116380        147122        182877        221326       
4700          16739.3       29675.1       41904.4       52780.6       63109.1       74141.8       92393.1       116752        147459        183084        221353       
4750          16728.5       29618.8       41837         52749.1       63157.2       74297.7       92689.7       117119        147790        183289        221380       
4800          16718         29564         41772.1       52720.2       63207.1       74453.8       92982.5       117480        148116        183489        221406       
4850          16707.7       29510.7       41709.4       52693.8       63259         74610.2       93272.7       117836        148435        183686        221431       
4900          16697.7       29458.9       41649.2       52669.9       63312.6       74766.7       93560.5       118187        148750        183879        221456       
4950          16688         29408.7       41591.2       52648.4       63368         74923.4       93845.1       118532        149059        184068        221481       
5000          16678.6       29359.9       41535.5       52629.3       63425.1       75080.1       94126.9       118873        149363        184255        221505       
5050          16669.4       29312.5       41482.1       52612.5       63483.5       75236.7       94405.4       119208        149662        184438        221528       
5100          16660.4       29266.6       41430.7       52597.9       63543.8       75393.5       94681.6       119539        149956        184617        221552       
5150          16651.7       29222         41381.5       52585.6       63605.5       75550         94955         119864        150245        184794        221574       
5200          16643.3       29178.8       41334.4       52575.5       63668.6       75706.6       95225.7       120186        150529        184967        221597       
5250          16635         29137         41289.3       52567.6       63733.2       75863         95493.5       120502        150808        185138        221619       
5300          16627         29096.5       41246.2       52561.6       63799.1       76019.4       95758.4       120814        151083        185305        221640       
5350          16619.3       29057.3       41205.3       52557.7       63866.1       76175.2       96020.8       121122        151353        185470        221662       
5400          16611.7       29019.3       41166.2       52555.8       63934.6       76331.2       96281         121426        151620        185632        221683       
5450          16604.4       28982.7       41129         52555.9       64004.2       76486.8       96538         121724        151882        185791        221703       
5500          16597.4       28947.3       41093.7       52557.8       64075         76642.1       96792.3       122019        152139        185947        221723       
5550          16590.5       28913.1       41060.3       52561.6       64146.7       76797         97044.1       122310        152393        186101        221743       
5600          16583.8       28880.1       41028.7       52567.2       64219.7       76951.6       97293.5       122596        152642        186252        221763       
5650          16577.4       28848.3       40998.9       52574.6       64293.6       77106         97540.2       122879        152888        186401        221782       
5700          16571.1       28817.6       40970.8       52583.6       64368.6       77259.9       97784.5       123158        153130        186547        221801       
5750          16565.1       28788.1       40944.4       52594.4       64444.4       77413.4       98026.1       123432        153368        186691        221819       
5800          16559.3       28759.7       40919.7       52606.8       64521.2       77566.4       98265.4       123704        153602        186832        221837       
5850          16553.6       28732.4       40896.7       52620.8       64598.8       77719         98502.1       123971        153832        186971        221855       
5900          16548.2       28706.2       40875.3       52636.4       64677.2       77871.2       98736.2       124234        154059        187108        221873       
5950          16542.9       28681.1       40855.4       52653.4       64756.5       78022.7       98968.4       124494        154283        187243        221890       
6000          16537.8       28657         40837.1       52672         64836.5       78174         99198         124751        154503        187375        221907       
6050          16532.9       28634         40820.4       52692         64917.2       78324.6       99425.1       125004        154720        187506        221924       
6100          16528.2       28611.9       40805.2       52713.4       64998.7       78474.7       99650.1       125254        154933        187634        221941       
6150          16523.7       28590.9       40791.4       52736.3       65080.8       78624.3       99873         125500        155144        187761        221957       
6200          16519.3       28570.9       40779.1       52760.4       65163.4       78773.2       100093        125743        155351        187885        221973       
6250          16515.2       28551.8       40768.1       52785.8       65246.6       78921.7       100311        125982        155555        188007        221988       
6300          16511.2       28533.6       40758.6       52812.6       65330.6       79069.6       100527        126219        155756        188128        222004       
6350          16507.3       28516.4       40750.4       52840.5       65415         79216.9       100741        126453        155954        188246        222019       
6400          16503.6       28500.1       40743.6       52869.6       65499.9       79363.6       100952        126683        156149        188363        222034       
6450          16500.1       28484.7       40738         52899.9       65585.2       79509.6       101162        126911        156342        188478        222049       
6500          16496.7       28470.3       40733.8       52931.4       65670.9       79654.8       101369        127135        156531        188591        222063       
6550          16493.5       28456.6       40730.8       52963.9       65757.3       79799.7       101574        127356        156718        188703        222078       
6600          16490.5       28443.8       40728.9       52997.6       65843.9       79943.9       101777        127575        156902        188813        222092       
6650          16487.6       28431.9       40728.4       53032.3       65931         80087.5       101978        127791        157083        188921        222106       
6700          16484.8       28420.8       40729         53068         66018.4       80230.3       102177        128004        157262        189027        222119       
6750          16482.2       28410.5       40730.7       53104.7       66106.1       80372.5       102374        128214        157439        189133        222133       
6800          16479.8       28401         40733.6       53142.4       66194.2       80514.1       102569        128422        157612        189236        222146       
6850          16477.5       28392.3       40737.5       53181         66282.6       80655         102762        128627        157784        189338        222159       
6900          16475.3       28384.3       40742.5       53220.5       66371.1       80795.1       102954        128830        157953        189438        222172       
6950          16473.2       28377.1       40748.6       53260.9       66459.9       80934.8       103143        129029        158120        189538        222185       
7000          16471.3       28370.7       40755.8       53302.1       66548.9       81073.3       103330        129227        158284        189635        222197       
7050          16469.5       28364.9       40763.9       53344.2       66638.1       81211.7       103516        129422        158446        189731        222210       
7100          16467.9       28359.9       40773         53386.9       66727.6       81348.9       103700        129614        158606        189826        222222       
7150          16466.3       28355.5       40783         53430.7       66817.2       81485.9       103882        129805        158764        189919        222234       
7200          16465         28351.9       40794.1       53475.2       66907.2       81622         104062        129992        158919        190011        222246       
7250          16463.7       28348.9       40806         53520.3       66997.2       81757.4       104240        130178        159073        190102        222257       
7300          16462.5       28346.6       40818.9       53566.2       67087.2       81892.1       104417        130361        159224        190192        222269       
7350          16461.5       28344.9       40832.6       53612.7       67177.3       82026.1       104592        130542        159373        190280        222280       
7400          16460.6       28343.8       40847.2       53659.9       67267.5       82159.3       104765        130721        159521        190367        222291       
7450          16459.8       28343.4       40862.6       53707.7       67357.9       82291.9       104937        130898        159666        190453        222302       
7500          16459.1       28343.6       40878.8       53756.2       67448.2       82423.7       105107        131073        159810        190538        222313       
7550          16458.5       28344.4       40895.9       53805.4       67538.8       82555         105275        131245        159951        190621        222323       
7600          16458         28345.7       40913.7       53855         67629.3       82685.6       105442        131416        160091        190703        222334       
7650          16457.6       28347.7       40932.3       53905.2       67719.6       82815.3       105607        131585        160229        190785        222344       
7700          16457.4       28350.2       40951.7       53956         67810.3       82944.4       105771        131751        160366        190865        222355       
7750          16457.2       28353.2       40971.7       54007.3       67900.8       83072.8       105933        131916        160500        190944        222365       
7800          16457.1       28356.8       40992.5       54059.1       67991.2       83200.4       106094        132079        160633        191022        222375       
7850          16457.1       28360.9       41013.9       54111.4       68081.7       83327.4       106252        132239        160764        191099        222384       
7900          16457.3       28365.5       41036.1       54164.2       68172         83453.6       106410        132398        160893        191175        222394       
7950          16457.5       28370.7       41058.8       54217.3       68262.3       83579         106566        132555        161021        191250        222404       
8000          16457.8       28376.3       41082.3       54271         68352.7       83704.1       106721        132711        161147        191324        222413       
8050          16458.2       28382.4       41106.3       54325.1       68442.9       83828.2       106874        132864        161272        191397        222423       
8100          16458.7       28389         41131         54379.6       68533.1       83951.8       107026        133016        161395        191469        222432       
8150          16459.2       28396         41156.2       54434.5       68623.2       84074.6       107176        133167        161517        191540        222441       
8200          16459.9       28403.6       41182.1       54489.7       68713.2       84196.7       107325        133315        161637        191611        222450       
8250          16460.6       28411.5       41208.5       54545.4       68803.2       84318.3       107473        133462        161755        191680        222459       
8300          16461.5       28419.8       41235.4       54601.2       68892.8       84438.9       107619        133607        161872        191748        222467       
8350          16462.4       28428.6       41262.9       54657.6       68982.5       84559         107764        133751        161988        191816        222476       
8400          16463.4       28437.9       41290.8       54714.1       69072         84678.4       107907        133893        162102        191882        222484       
8450          16464.4       28447.5       41319.3       54770.9       69161.3       84797         108050        134033        162215        191948        222493       
8500          16465.5       28457.5       41348.2       54828.1       69250.3       84914.8       108191        134172        162327        192014        222501       
8550          16466.7       28467.8       41377.6       54885.4       69339.4       85032.3       108331        134310        162437        192078        222510       
8600          16468         28478.6       41407.6       54943.2       69428.4       85149         108469        134446        162546        192141        222518       
8650          16469.4       28489.7       41437.9       55001.1       69517.1       85264.9       108606        134580        162654        192204        222525       
8700          16470.8       28501.2       41468.7       55059.3       69605.7       85380.4       108743        134714        162760        192266        222533       
8750          16472.2       28513         41499.8       55117.6       69693.9       85494.9       108877        134845        162865        192327        222541       