# Probe 0 (0.0015 0.0015 0)
# Probe 1 (0.0015 0.0015 0.01)
# Probe 2 (0.0015 0.0015 0.02)
# Probe 3 (0.0015 0.0015 0.03)
# Probe 4 (0.0015 0.0015 0.04)
# Probe 5 (0.0015 0.0015 0.05)
# Probe 6 (0.0015 0.0015 0.06)
# Probe 7 (0.0015 0.0015 0.07)
# Probe 8 (0.0015 0.0015 0.08)
# Probe 9 (0.0015 0.0015 0.09)
# Probe 10 (0.0015 0.0015 0.1)
# Time        0             1             2             3             4             5             6             7             8             9             10           
50            0.000785706   0.000785706   0.000785706   0.000785706   0.000785706   0.000785706   0.000578955   0.000578955   0.000578955   0.000578955   0.000578955  
100           0.000785706   0.000785706   0.000785706   0.000785706   0.000785706   0.000785706   0.000578955   0.000578955   0.000578955   0.000578955   0.000578955  
150           0.000785706   0.000785706   0.000785706   0.000785706   0.000785706   0.000785706   0.000578955   0.000578955   0.000578955   0.000578955   0.000578955  
200           0.000785706   0.000785706   0.000785706   0.000785706   0.000785706   0.000785706   0.000578955   0.000578955   0.000578955   0.000578955   0.000578955  
250           0.000785706   0.000785706   0.000785706   0.000785706   0.000785706   0.000785706   0.000578955   0.000578955   0.000578955   0.000578955   0.000578955  
300           0.000785706   0.000785706   0.000785706   0.000785706   0.000785706   0.000785706   0.000578955   0.000578955   0.000578955   0.000578955   0.000578955  
350           0.000785706   0.000785706   0.000785706   0.000785706   0.000785706   0.000785706   0.000578955   0.000578955   0.000578955   0.000578955   0.000578955  
400           0.000785706   0.000785706   0.000785706   0.000785706   0.000785706   0.000785706   0.000578955   0.000578955   0.000578955   0.000578955   0.000578955  
450           0.000785706   0.000785706   0.000785706   0.000785706   0.000785706   0.000785706   0.000578955   0.000578955   0.000578955   0.000578955   0.000578955  
500           0.000785706   0.000785706   0.000785706   0.000785706   0.000785706   0.000785706   0.000578955   0.000578955   0.000578955   0.000578955   0.000578955  
550           0.000785706   0.000785706   0.000785706   0.000785706   0.000785706   0.000785706   0.000578955   0.000578955   0.000578955   0.000578955   0.000578955  
600           0.000785706   0.000785706   0.000785706   0.000785706   0.000785706   0.000785706   0.000578955   0.000578955   0.000578955   0.000578955   0.000578955  
650           0.000785706   0.000785706   0.000785706   0.000785706   0.000785706   0.000785706   0.000578955   0.000578955   0.000578955   0.000578955   0.000578955  
700           0.000785706   0.000785706   0.000785706   0.000785706   0.000785706   0.000785706   0.000578955   0.000578955   0.000578955   0.000578955   0.000578955  
750           0.000785706   0.000785706   0.000785706   0.000785706   0.000785706   0.000785706   0.000578955   0.000578955   0.000578955   0.000578955   0.000578955  
800           0.000785706   0.000785706   0.000785706   0.000785706   0.000785706   0.000785706   0.000578955   0.000578955   0.000578955   0.000578955   0.000578955  
850           0.000785706   0.000785706   0.000785706   0.000785706   0.000785706   0.000785706   0.000578955   0.000578955   0.000578955   0.000578955   0.000578955  
900           0.000785706   0.000785706   0.000785706   0.000785706   0.000785706   0.000785706   0.000578955   0.000578955   0.000578955   0.000578955   0.000578955  
950           0.000785706   0.000785706   0.000785706   0.000785706   0.000785706   0.000785706   0.000578955   0.000578955   0.000578955   0.000578955   0.000578955  
1000          0.000785706   0.000785706   0.000785706   0.000785706   0.000785706   0.000785706   0.000578955   0.000578955   0.000578955   0.000578955   0.000578955  
1050          0.000785706   0.000785706   0.000785706   0.000785706   0.000785706   0.000785706   0.000578955   0.000578955   0.000578955   0.000578955   0.000578955  
1100          0.000785706   0.000785706   0.000785706   0.000785706   0.000785706   0.000785706   0.000578955   0.000578955   0.000578955   0.000578955   0.000578955  
1150          0.000785706   0.000785706   0.000785706   0.000785706   0.000785706   0.000785706   0.000578955   0.000578955   0.000578955   0.000578955   0.000578955  
1200          0.000785706   0.000785706   0.000785706   0.000785706   0.000785706   0.000785706   0.000578955   0.000578955   0.000578955   0.000578955   0.000578955  
1250          0.000785706   0.000785706   0.000785706   0.000785706   0.000785706   0.000785706   0.000578955   0.000578955   0.000578955   0.000578955   0.000578955  
1300          0.000785706   0.000785706   0.000785706   0.000785706   0.000785706   0.000785706   0.000578955   0.000578955   0.000578955   0.000578955   0.000578955  
1350          0.000785706   0.000785706   0.000785706   0.000785706   0.000785706   0.000785706   0.000578955   0.000578955   0.000578955   0.000578955   0.000578955  
1400          0.000785706   0.000785706   0.000785706   0.000785706   0.000785706   0.000785706   0.000578955   0.000578955   0.000578955   0.000578955   0.000578955  
1450          0.000785706   0.000785706   0.000785706   0.000785706   0.000785706   0.000785706   0.000578955   0.000578955   0.000578955   0.000578955   0.000578955  
1500          0.000785706   0.000785706   0.000785706   0.000785706   0.000785706   0.000785706   0.000578955   0.000578955   0.000578955   0.000578955   0.000578955  
1550          0.000785706   0.000785706   0.000785706   0.000785706   0.000785706   0.000785706   0.000578955   0.000578955   0.000578955   0.000578955   0.000578955  
1600          0.000785706   0.000785706   0.000785706   0.000785706   0.000785706   0.000785706   0.000578955   0.000578955   0.000578955   0.000578955   0.000578955  
1650          0.000785706   0.000785706   0.000785706   0.000785706   0.000785706   0.000785706   0.000578955   0.000578955   0.000578955   0.000578955   0.000578955  
1700          0.000785706   0.000785706   0.000785706   0.000785706   0.000785706   0.000785706   0.000578955   0.000578955   0.000578955   0.000578955   0.000578955  
1750          0.000785706   0.000785706   0.000785706   0.000785706   0.000785706   0.000785706   0.000578955   0.000578955   0.000578955   0.000578955   0.000578955  
1800          0.000785706   0.000785706   0.000785706   0.000785706   0.000785706   0.000785706   0.000578955   0.000578955   0.000578955   0.000578955   0.000578955  
1850          0.000785706   0.000785706   0.000785706   0.000785706   0.000785706   0.000785706   0.000578955   0.000578955   0.000578955   0.000578955   0.000578955  
1900          0.000785706   0.000785706   0.000785706   0.000785706   0.000785706   0.000785706   0.000578955   0.000578955   0.000578955   0.000578955   0.000578955  
1950          0.000785706   0.000785706   0.000785706   0.000785706   0.000785706   0.000785706   0.000578955   0.000578955   0.000578955   0.000578955   0.000578955  
2000          0.000785706   0.000785706   0.000785706   0.000785706   0.000785706   0.000785706   0.000578955   0.000578955   0.000578955   0.000578955   0.000578955  
2050          0.000785706   0.000785706   0.000785706   0.000785706   0.000785706   0.000785706   0.000578955   0.000578955   0.000578955   0.000578955   0.000578955  
2100          0.000785706   0.000785706   0.000785706   0.000785706   0.000785706   0.000785706   0.000578955   0.000578955   0.000578955   0.000578955   0.000578955  
2150          0.000785706   0.000785706   0.000785706   0.000785706   0.000785706   0.000785706   0.000578955   0.000578955   0.000578955   0.000578955   0.000578955  
2200          0.000785706   0.000785706   0.000785706   0.000785706   0.000785706   0.000785706   0.000578955   0.000578955   0.000578955   0.000578955   0.000578955  
2250          0.000785706   0.000785706   0.000785706   0.000785706   0.000785706   0.000785706   0.000578955   0.000578955   0.000578955   0.000578955   0.000578955  
2300          0.000785706   0.000785706   0.000785706   0.000785706   0.000785706   0.000785706   0.000578955   0.000578955   0.000578955   0.000578955   0.000578955  
2350          0.000785706   0.000785706   0.000785706   0.000785706   0.000785706   0.000785706   0.000578955   0.000578955   0.000578955   0.000578955   0.000578955  
2400          0.000785706   0.000785706   0.000785706   0.000785706   0.000785706   0.000785706   0.000578955   0.000578955   0.000578955   0.000578955   0.000578955  
2450          0.000785706   0.000785706   0.000785706   0.000785706   0.000785706   0.000785706   0.000578955   0.000578955   0.000578955   0.000578955   0.000578955  
2500          0.000785706   0.000785706   0.000785706   0.000785706   0.000785706   0.000785706   0.000578955   0.000578955   0.000578955   0.000578955   0.000578955  
2550          0.000785706   0.000785706   0.000785706   0.000785706   0.000785706   0.000785706   0.000578955   0.000578955   0.000578955   0.000578955   0.000578955  
2600          0.000785706   0.000785706   0.000785706   0.000785706   0.000785706   0.000785706   0.000578955   0.000578955   0.000578955   0.000578955   0.000578955  
2650          0.000785706   0.000785706   0.000785706   0.000785706   0.000785706   0.000785706   0.000578955   0.000578955   0.000578955   0.000578955   0.000578955  
2700          0.000785706   0.000785706   0.000785706   0.000785706   0.000785706   0.000785706   0.000578955   0.000578955   0.000578955   0.000578955   0.000578955  
2750          0.000785706   0.000785706   0.000785706   0.000785706   0.000785706   0.000785706   0.000578955   0.000578955   0.000578955   0.000578955   0.000578955  
2800          0.000785706   0.000785706   0.000785706   0.000785706   0.000785706   0.000785706   0.000578955   0.000578955   0.000578955   0.000578955   0.000578955  
2850          0.000785706   0.000785706   0.000785706   0.000785706   0.000785706   0.000785706   0.000578955   0.000578955   0.000578955   0.000578955   0.000578955  
2900          0.000785706   0.000785706   0.000785706   0.000785706   0.000785706   0.000785706   0.000578955   0.000578955   0.000578955   0.000578955   0.000578955  
2950          0.000785706   0.000785706   0.000785706   0.000785706   0.000785706   0.000785706   0.000578955   0.000578955   0.000578955   0.000578955   0.000578955  
3000          0.000785706   0.000785706   0.000785706   0.000785706   0.000785706   0.000785706   0.000578955   0.000578955   0.000578955   0.000578955   0.000578955  
3050          0.000785706   0.000785706   0.000785706   0.000785706   0.000785706   0.000785706   0.000578955   0.000578955   0.000578955   0.000578955   0.000578955  
3100          0.000785706   0.000785706   0.000785706   0.000785706   0.000785706   0.000785706   0.000578955   0.000578955   0.000578955   0.000578955   0.000578955  
3150          0.000785706   0.000785706   0.000785706   0.000785706   0.000785706   0.000785706   0.000578955   0.000578955   0.000578955   0.000578955   0.000578955  
3200          0.000785706   0.000785706   0.000785706   0.000785706   0.000785706   0.000785706   0.000578955   0.000578955   0.000578955   0.000578955   0.000578955  
3250          0.000785706   0.000785706   0.000785706   0.000785706   0.000785706   0.000785706   0.000578955   0.000578955   0.000578955   0.000578955   0.000578955  
3300          0.000785706   0.000785706   0.000785706   0.000785706   0.000785706   0.000785706   0.000578955   0.000578955   0.000578955   0.000578955   0.000578955  
3350          0.000785706   0.000785706   0.000785706   0.000785706   0.000785706   0.000785706   0.000578955   0.000578955   0.000578955   0.000578955   0.000578955  
3400          0.000785706   0.000785706   0.000785706   0.000785706   0.000785706   0.000785706   0.000578955   0.000578955   0.000578955   0.000578955   0.000578955  
3450          0.000785706   0.000785706   0.000785706   0.000785706   0.000785706   0.000785706   0.000578955   0.000578955   0.000578955   0.000578955   0.000578955  
3500          0.000785706   0.000785706   0.000785706   0.000785706   0.000785706   0.000785706   0.000578955   0.000578955   0.000578955   0.000578955   0.000578955  
3550          0.000785706   0.000785706   0.000785706   0.000785706   0.000785706   0.000785706   0.000578955   0.000578955   0.000578955   0.000578955   0.000578955  
3600          0.000785706   0.000785706   0.000785706   0.000785706   0.000785706   0.000785706   0.000578955   0.000578955   0.000578955   0.000578955   0.000578955  
3650          0.000785706   0.000785706   0.000785706   0.000785706   0.000785706   0.000785706   0.000578955   0.000578955   0.000578955   0.000578955   0.000578955  
3700          0.000785706   0.000785706   0.000785706   0.000785706   0.000785706   0.000785706   0.000578955   0.000578955   0.000578955   0.000578955   0.000578955  
3750          0.000785706   0.000785706   0.000785706   0.000785706   0.000785706   0.000785706   0.000578955   0.000578955   0.000578955   0.000578955   0.000578955  
3800          0.000785706   0.000785706   0.000785706   0.000785706   0.000785706   0.000785706   0.000578955   0.000578955   0.000578955   0.000578955   0.000578955  
3850          0.000785706   0.000785706   0.000785706   0.000785706   0.000785706   0.000785706   0.000578955   0.000578955   0.000578955   0.000578955   0.000578955  
3900          0.000785706   0.000785706   0.000785706   0.000785706   0.000785706   0.000785706   0.000578955   0.000578955   0.000578955   0.000578955   0.000578955  
3950          0.000785706   0.000785706   0.000785706   0.000785706   0.000785706   0.000785706   0.000578955   0.000578955   0.000578955   0.000578955   0.000578955  
4000          0.000785706   0.000785706   0.000785706   0.000785706   0.000785706   0.000785706   0.000578955   0.000578955   0.000578955   0.000578955   0.000578955  
4050          0.000785706   0.000785706   0.000785706   0.000785706   0.000785706   0.000785706   0.000578955   0.000578955   0.000578955   0.000578955   0.000578955  
4100          0.000785706   0.000785706   0.000785706   0.000785706   0.000785706   0.000785706   0.000578955   0.000578955   0.000578955   0.000578955   0.000578955  
4150          0.000785706   0.000785706   0.000785706   0.000785706   0.000785706   0.000785706   0.000578955   0.000578955   0.000578955   0.000578955   0.000578955  
4200          0.000785706   0.000785706   0.000785706   0.000785706   0.000785706   0.000785706   0.000578955   0.000578955   0.000578955   0.000578955   0.000578955  
4250          0.000785706   0.000785706   0.000785706   0.000785706   0.000785706   0.000785706   0.000578955   0.000578955   0.000578955   0.000578955   0.000578955  
4300          0.000785706   0.000785706   0.000785706   0.000785706   0.000785706   0.000785706   0.000578955   0.000578955   0.000578955   0.000578955   0.000578955  
4350          0.000785706   0.000785706   0.000785706   0.000785706   0.000785706   0.000785706   0.000578955   0.000578955   0.000578955   0.000578955   0.000578955  
4400          0.000785706   0.000785706   0.000785706   0.000785706   0.000785706   0.000785706   0.000578955   0.000578955   0.000578955   0.000578955   0.000578955  
4450          0.000785706   0.000785706   0.000785706   0.000785706   0.000785706   0.000785706   0.000578955   0.000578955   0.000578955   0.000578955   0.000578955  
4500          0.000785706   0.000785706   0.000785706   0.000785706   0.000785706   0.000785706   0.000578955   0.000578955   0.000578955   0.000578955   0.000578955  
4550          0.000785706   0.000785706   0.000785706   0.000785706   0.000785706   0.000785706   0.000578955   0.000578955   0.000578955   0.000578955   0.000578955  
4600          0.000785706   0.000785706   0.000785706   0.000785706   0.000785706   0.000785706   0.000578955   0.000578955   0.000578955   0.000578955   0.000578955  
4650          0.000785706   0.000785706   0.000785706   0.000785706   0.000785706   0.000785706   0.000578955   0.000578955   0.000578955   0.000578955   0.000578955  
4700          0.000785706   0.000785706   0.000785706   0.000785706   0.000785706   0.000785706   0.000578955   0.000578955   0.000578955   0.000578955   0.000578955  
4750          0.000785706   0.000785706   0.000785706   0.000785706   0.000785706   0.000785706   0.000578955   0.000578955   0.000578955   0.000578955   0.000578955  
4800          0.000785706   0.000785706   0.000785706   0.000785706   0.000785706   0.000785706   0.000578955   0.000578955   0.000578955   0.000578955   0.000578955  
4850          0.000785706   0.000785706   0.000785706   0.000785706   0.000785706   0.000785706   0.000578955   0.000578955   0.000578955   0.000578955   0.000578955  
4900          0.000785706   0.000785706   0.000785706   0.000785706   0.000785706   0.000785706   0.000578955   0.000578955   0.000578955   0.000578955   0.000578955  
4950          0.000785706   0.000785706   0.000785706   0.000785706   0.000785706   0.000785706   0.000578955   0.000578955   0.000578955   0.000578955   0.000578955  
5000          0.000785706   0.000785706   0.000785706   0.000785706   0.000785706   0.000785706   0.000578955   0.000578955   0.000578955   0.000578955   0.000578955  
5050          0.000785706   0.000785706   0.000785706   0.000785706   0.000785706   0.000785706   0.000578955   0.000578955   0.000578955   0.000578955   0.000578955  
5100          0.000785706   0.000785706   0.000785706   0.000785706   0.000785706   0.000785706   0.000578955   0.000578955   0.000578955   0.000578955   0.000578955  
5150          0.000785706   0.000785706   0.000785706   0.000785706   0.000785706   0.000785706   0.000578955   0.000578955   0.000578955   0.000578955   0.000578955  
5200          0.000785706   0.000785706   0.000785706   0.000785706   0.000785706   0.000785706   0.000578955   0.000578955   0.000578955   0.000578955   0.000578955  
5250          0.000785706   0.000785706   0.000785706   0.000785706   0.000785706   0.000785706   0.000578955   0.000578955   0.000578955   0.000578955   0.000578955  
5300          0.000785706   0.000785706   0.000785706   0.000785706   0.000785706   0.000785706   0.000578955   0.000578955   0.000578955   0.000578955   0.000578955  
5350          0.000785706   0.000785706   0.000785706   0.000785706   0.000785706   0.000785706   0.000578955   0.000578955   0.000578955   0.000578955   0.000578955  
5400          0.000785706   0.000785706   0.000785706   0.000785706   0.000785706   0.000785706   0.000578955   0.000578955   0.000578955   0.000578955   0.000578955  
5450          0.000785706   0.000785706   0.000785706   0.000785706   0.000785706   0.000785706   0.000578955   0.000578955   0.000578955   0.000578955   0.000578955  
5500          0.000785706   0.000785706   0.000785706   0.000785706   0.000785706   0.000785706   0.000578955   0.000578955   0.000578955   0.000578955   0.000578955  
5550          0.000785706   0.000785706   0.000785706   0.000785706   0.000785706   0.000785706   0.000578955   0.000578955   0.000578955   0.000578955   0.000578955  
5600          0.000785706   0.000785706   0.000785706   0.000785706   0.000785706   0.000785706   0.000578955   0.000578955   0.000578955   0.000578955   0.000578955  
5650          0.000785706   0.000785706   0.000785706   0.000785706   0.000785706   0.000785706   0.000578955   0.000578955   0.000578955   0.000578955   0.000578955  
5700          0.000785706   0.000785706   0.000785706   0.000785706   0.000785706   0.000785706   0.000578955   0.000578955   0.000578955   0.000578955   0.000578955  
5750          0.000785706   0.000785706   0.000785706   0.000785706   0.000785706   0.000785706   0.000578955   0.000578955   0.000578955   0.000578955   0.000578955  
5800          0.000785706   0.000785706   0.000785706   0.000785706   0.000785706   0.000785706   0.000578955   0.000578955   0.000578955   0.000578955   0.000578955  
5850          0.000785706   0.000785706   0.000785706   0.000785706   0.000785706   0.000785706   0.000578955   0.000578955   0.000578955   0.000578955   0.000578955  
5900          0.000785706   0.000785706   0.000785706   0.000785706   0.000785706   0.000785706   0.000578955   0.000578955   0.000578955   0.000578955   0.000578955  
5950          0.000785706   0.000785706   0.000785706   0.000785706   0.000785706   0.000785706   0.000578955   0.000578955   0.000578955   0.000578955   0.000578955  
6000          0.000785706   0.000785706   0.000785706   0.000785706   0.000785706   0.000785706   0.000578955   0.000578955   0.000578955   0.000578955   0.000578955  
6050          0.000785706   0.000785706   0.000785706   0.000785706   0.000785706   0.000785706   0.000578955   0.000578955   0.000578955   0.000578955   0.000578955  
6100          0.000785706   0.000785706   0.000785706   0.000785706   0.000785706   0.000785706   0.000578955   0.000578955   0.000578955   0.000578955   0.000578955  
6150          0.000785706   0.000785706   0.000785706   0.000785706   0.000785706   0.000785706   0.000578955   0.000578955   0.000578955   0.000578955   0.000578955  
6200          0.000785706   0.000785706   0.000785706   0.000785706   0.000785706   0.000785706   0.000578955   0.000578955   0.000578955   0.000578955   0.000578955  
6250          0.000785706   0.000785706   0.000785706   0.000785706   0.000785706   0.000785706   0.000578955   0.000578955   0.000578955   0.000578955   0.000578955  
6300          0.000785706   0.000785706   0.000785706   0.000785706   0.000785706   0.000785706   0.000578955   0.000578955   0.000578955   0.000578955   0.000578955  
6350          0.000785706   0.000785706   0.000785706   0.000785706   0.000785706   0.000785706   0.000578955   0.000578955   0.000578955   0.000578955   0.000578955  
6400          0.000785706   0.000785706   0.000785706   0.000785706   0.000785706   0.000785706   0.000578955   0.000578955   0.000578955   0.000578955   0.000578955  
6450          0.000785706   0.000785706   0.000785706   0.000785706   0.000785706   0.000785706   0.000578955   0.000578955   0.000578955   0.000578955   0.000578955  
6500          0.000785706   0.000785706   0.000785706   0.000785706   0.000785706   0.000785706   0.000578955   0.000578955   0.000578955   0.000578955   0.000578955  
6550          0.000785706   0.000785706   0.000785706   0.000785706   0.000785706   0.000785706   0.000578955   0.000578955   0.000578955   0.000578955   0.000578955  
6600          0.000785706   0.000785706   0.000785706   0.000785706   0.000785706   0.000785706   0.000578955   0.000578955   0.000578955   0.000578955   0.000578955  
6650          0.000785706   0.000785706   0.000785706   0.000785706   0.000785706   0.000785706   0.000578955   0.000578955   0.000578955   0.000578955   0.000578955  
6700          0.000785706   0.000785706   0.000785706   0.000785706   0.000785706   0.000785706   0.000578955   0.000578955   0.000578955   0.000578955   0.000578955  
6750          0.000785706   0.000785706   0.000785706   0.000785706   0.000785706   0.000785706   0.000578955   0.000578955   0.000578955   0.000578955   0.000578955  
6800          0.000785706   0.000785706   0.000785706   0.000785706   0.000785706   0.000785706   0.000578955   0.000578955   0.000578955   0.000578955   0.000578955  
6850          0.000785706   0.000785706   0.000785706   0.000785706   0.000785706   0.000785706   0.000578955   0.000578955   0.000578955   0.000578955   0.000578955  
6900          0.000785706   0.000785706   0.000785706   0.000785706   0.000785706   0.000785706   0.000578955   0.000578955   0.000578955   0.000578955   0.000578955  
6950          0.000785706   0.000785706   0.000785706   0.000785706   0.000785706   0.000785706   0.000578955   0.000578955   0.000578955   0.000578955   0.000578955  
7000          0.000785706   0.000785706   0.000785706   0.000785706   0.000785706   0.000785706   0.000578955   0.000578955   0.000578955   0.000578955   0.000578955  
7050          0.000785706   0.000785706   0.000785706   0.000785706   0.000785706   0.000785706   0.000578955   0.000578955   0.000578955   0.000578955   0.000578955  
7100          0.000785706   0.000785706   0.000785706   0.000785706   0.000785706   0.000785706   0.000578955   0.000578955   0.000578955   0.000578955   0.000578955  
7150          0.000785706   0.000785706   0.000785706   0.000785706   0.000785706   0.000785706   0.000578955   0.000578955   0.000578955   0.000578955   0.000578955  
7200          0.000785706   0.000785706   0.000785706   0.000785706   0.000785706   0.000785706   0.000578955   0.000578955   0.000578955   0.000578955   0.000578955  
7250          0.000785706   0.000785706   0.000785706   0.000785706   0.000785706   0.000785706   0.000578955   0.000578955   0.000578955   0.000578955   0.000578955  
7300          0.000785706   0.000785706   0.000785706   0.000785706   0.000785706   0.000785706   0.000578955   0.000578955   0.000578955   0.000578955   0.000578955  
7350          0.000785706   0.000785706   0.000785706   0.000785706   0.000785706   0.000785706   0.000578955   0.000578955   0.000578955   0.000578955   0.000578955  
7400          0.000785706   0.000785706   0.000785706   0.000785706   0.000785706   0.000785706   0.000578955   0.000578955   0.000578955   0.000578955   0.000578955  
7450          0.000785706   0.000785706   0.000785706   0.000785706   0.000785706   0.000785706   0.000578955   0.000578955   0.000578955   0.000578955   0.000578955  
7500          0.000785706   0.000785706   0.000785706   0.000785706   0.000785706   0.000785706   0.000578955   0.000578955   0.000578955   0.000578955   0.000578955  
7550          0.000785706   0.000785706   0.000785706   0.000785706   0.000785706   0.000785706   0.000578955   0.000578955   0.000578955   0.000578955   0.000578955  
7600          0.000785706   0.000785706   0.000785706   0.000785706   0.000785706   0.000785706   0.000578955   0.000578955   0.000578955   0.000578955   0.000578955  
7650          0.000785706   0.000785706   0.000785706   0.000785706   0.000785706   0.000785706   0.000578955   0.000578955   0.000578955   0.000578955   0.000578955  
7700          0.000785706   0.000785706   0.000785706   0.000785706   0.000785706   0.000785706   0.000578955   0.000578955   0.000578955   0.000578955   0.000578955  
7750          0.000785706   0.000785706   0.000785706   0.000785706   0.000785706   0.000785706   0.000578955   0.000578955   0.000578955   0.000578955   0.000578955  
7800          0.000785706   0.000785706   0.000785706   0.000785706   0.000785706   0.000785706   0.000578955   0.000578955   0.000578955   0.000578955   0.000578955  
7850          0.000785706   0.000785706   0.000785706   0.000785706   0.000785706   0.000785706   0.000578955   0.000578955   0.000578955   0.000578955   0.000578955  
7900          0.000785706   0.000785706   0.000785706   0.000785706   0.000785706   0.000785706   0.000578955   0.000578955   0.000578955   0.000578955   0.000578955  
7950          0.000785706   0.000785706   0.000785706   0.000785706   0.000785706   0.000785706   0.000578955   0.000578955   0.000578955   0.000578955   0.000578955  
8000          0.000785706   0.000785706   0.000785706   0.000785706   0.000785706   0.000785706   0.000578955   0.000578955   0.000578955   0.000578955   0.000578955  
8050          0.000785706   0.000785706   0.000785706   0.000785706   0.000785706   0.000785706   0.000578955   0.000578955   0.000578955   0.000578955   0.000578955  
8100          0.000785706   0.000785706   0.000785706   0.000785706   0.000785706   0.000785706   0.000578955   0.000578955   0.000578955   0.000578955   0.000578955  
8150          0.000785706   0.000785706   0.000785706   0.000785706   0.000785706   0.000785706   0.000578955   0.000578955   0.000578955   0.000578955   0.000578955  
8200          0.000785706   0.000785706   0.000785706   0.000785706   0.000785706   0.000785706   0.000578955   0.000578955   0.000578955   0.000578955   0.000578955  
8250          0.000785706   0.000785706   0.000785706   0.000785706   0.000785706   0.000785706   0.000578955   0.000578955   0.000578955   0.000578955   0.000578955  
8300          0.000785706   0.000785706   0.000785706   0.000785706   0.000785706   0.000785706   0.000578955   0.000578955   0.000578955   0.000578955   0.000578955  
8350          0.000785706   0.000785706   0.000785706   0.000785706   0.000785706   0.000785706   0.000578955   0.000578955   0.000578955   0.000578955   0.000578955  
8400          0.000785706   0.000785706   0.000785706   0.000785706   0.000785706   0.000785706   0.000578955   0.000578955   0.000578955   0.000578955   0.000578955  
8450          0.000785706   0.000785706   0.000785706   0.000785706   0.000785706   0.000785706   0.000578955   0.000578955   0.000578955   0.000578955   0.000578955  
8500          0.000785706   0.000785706   0.000785706   0.000785706   0.000785706   0.000785706   0.000578955   0.000578955   0.000578955   0.000578955   0.000578955  
8550          0.000785706   0.000785706   0.000785706   0.000785706   0.000785706   0.000785706   0.000578955   0.000578955   0.000578955   0.000578955   0.000578955  
8600          0.000785706   0.000785706   0.000785706   0.000785706   0.000785706   0.000785706   0.000578955   0.000578955   0.000578955   0.000578955   0.000578955  
8650          0.000785706   0.000785706   0.000785706   0.000785706   0.000785706   0.000785706   0.000578955   0.000578955   0.000578955   0.000578955   0.000578955  
8700          0.000785706   0.000785706   0.000785706   0.000785706   0.000785706   0.000785706   0.000578955   0.000578955   0.000578955   0.000578955   0.000578955  
8750          0.000785706   0.000785706   0.000785706   0.000785706   0.000785706   0.000785706   0.000578955   0.000578955   0.000578955   0.000578955   0.000578955  