# Probe 0 (0.0015 0.0015 0)
# Probe 1 (0.0015 0.0015 0.01)
# Probe 2 (0.0015 0.0015 0.02)
# Probe 3 (0.0015 0.0015 0.03)
# Probe 4 (0.0015 0.0015 0.04)
# Probe 5 (0.0015 0.0015 0.05)
# Probe 6 (0.0015 0.0015 0.06)
# Probe 7 (0.0015 0.0015 0.07)
# Probe 8 (0.0015 0.0015 0.08)
# Probe 9 (0.0015 0.0015 0.09)
# Probe 10 (0.0015 0.0015 0.1)
# Time        0             1             2             3             4             5             6             7             8             9             10           
50            (3.55165 3.55165 1.00914e+07) (-1.98811 -1.98811 572216) (-0.296736 -0.296736 14295.5) (-0.0108836 -0.0108836 264.417) (-0.000378045 -0.000378059 210.369) (-0.0129475 -0.0129475 3725.77) (-0.00247835 -0.00247835 93.2272) (-0.000710682 -0.000710668 10.1854) (-0.0273566 -0.0273566 2860.85) (-3.02571 -3.02571 585665) (-36.1369 -36.1369 3.47096e+07)
100           (-5.31319 -5.31319 8.18664e+06) (5.03957 5.03957 1.03709e+06) (0.180204 0.180204 51970.3) (-0.00503868 -0.00503866 1685.11) (0.00182437 0.00182437 409.023) (-0.011424 -0.0114241 2519.8) (0.00182916 0.00182915 214.21) (0.00278827 0.00278828 117.167) (0.424083 0.424083 17512.2) (21.5476 21.5476 1.61221e+06) (-34.6903 -34.6903 2.57813e+07)
150           (37.016 37.016 7.03409e+06) (-7.38639 -7.38639 1.39504e+06) (-1.60983 -1.60983 112116) (-0.125978 -0.125978 5488.91) (-0.0095358 -0.00953583 680.929) (0.0178432 0.0178432 1998.8) (-0.00513493 -0.00513492 336.594) (-0.0261728 -0.0261728 596.571) (-1.90852 -1.90852 55697.2) (-62.3738 -62.3738 2.84916e+06) (141.568 141.568 2.12503e+07)
200           (-9.07214 -9.07214 6.24907e+06) (-0.777925 -0.777925 1.65118e+06) (-0.961384 -0.961384 187865) (-0.159044 -0.159044 12728.3) (-0.0127975 -0.0127975 1170.17) (-0.0029802 -0.00298021 1723.34) (0.000865308 0.000865322 453.894) (0.010052 0.010052 2004.14) (0.741841 0.741841 127318) (12.4146 12.4146 4.0377e+06) (-69.3754 -69.3754 1.84746e+07)
250           (-23.6071 -23.6071 5.67342e+06) (9.40965 9.40965 1.82906e+06) (3.9036 3.9036 271670) (-0.696855 -0.696855 24020.4) (-0.66127 -0.66127 2077.55) (-0.324317 -0.324317 1581.56) (0.0097051 0.00970507 585.649) (0.318766 0.318766 5189.92) (10.1697 10.1697 237502) (74.8568 74.8568 5.02691e+06) (-49.9576 -49.9576 1.65591e+07)
300           (-22.598 -22.598 5.22958e+06) (6.21452 6.21452 1.95051e+06) (5.2165 5.2165 357389) (0.631689 0.631689 39480.2) (-0.688749 -0.688749 3623.57) (-1.09337 -1.09337 1555.99) (0.0165593 0.0165593 778.98) (0.638799 0.638799 11221.8) (14.5692 14.5692 385902) (64.2582 64.2582 5.77407e+06) (-45.3084 -45.3084 1.51367e+07)
350           (-20.6725 -20.6725 4.87451e+06) (3.93144 3.93144 2.03204e+06) (5.23359 5.23359 440807) (1.16516 1.16516 58796.3) (-0.399938 -0.399938 6011.22) (-0.996643 -0.996643 1667.83) (0.0344715 0.0344715 1112.35) (1.1066 1.1066 21256.1) (18.6601 18.6601 567762) (50.0767 50.0767 6.30149e+06) (-40.9475 -40.9475 1.40269e+07)
400           (-25.7075 -25.7075 4.58255e+06) (2.89202 2.89202 2.08538e+06) (1.90355 1.90355 519381) (0.449047 0.449047 81365.9) (0.0542883 0.0542883 9394.79) (0.0287515 0.0287515 1959.71) (0.0460184 0.0460184 1699.72) (1.21688 1.21688 36421.7) (16.1399 16.1399 775752) (26.0122 26.0122 6.65389e+06) (-97.7785 -97.7785 1.31304e+07)
450           (-41.3661 -41.3661 4.33699e+06) (1.83097 1.83097 2.11859e+06) (7.87152 7.87152 591893) (2.88306 2.88306 106528) (0.52822 0.52822 13888.5) (0.156944 0.156944 2486.44) (0.233105 0.233105 2689.24) (4.71238 4.71238 57623.3) (47.4869 47.4869 1.00073e+06) (44.9891 44.9891 6.87767e+06) (-121.528 -121.528 1.23861e+07)
500           (-38.1208 -38.1208 4.12683e+06) (0.148942 0.148942 2.13736e+06) (7.54076 7.54076 657865) (3.30092 3.30092 133566) (0.712362 0.712362 19541.2) (0.271698 0.271698 3308.46) (0.394735 0.394735 4259.74) (6.53621 6.53621 85515.5) (52.0794 52.0794 1.23414e+06) (32.2332 32.2332 7.00889e+06) (-108.676 -108.676 1.17553e+07)
550           (-35.2339 -35.2339 3.9444e+06) (-1.20895 -1.20895 2.1457e+06) (7.02813 7.02813 717325) (3.62071 3.62071 161817) (0.910535 0.910535 26350.1) (0.430238 0.430238 4490.59) (0.619233 0.619233 6613.74) (8.50264 8.50264 120445) (54.4389 54.4389 1.46842e+06) (21.5085 21.5085 7.07463e+06) (-97.837 -97.837 1.1212e+07)
600           (-32.6971 -32.6971 3.78411e+06) (-2.28382 -2.28382 2.14645e+06) (6.43946 6.43946 770581) (3.85117 3.85117 190706) (1.11434 1.11434 34268) (0.636489 0.636489 6095.96) (0.916768 0.916768 9967.25) (10.5738 10.5738 162456) (55.2497 55.2497 1.69751e+06) (13.0297 13.0297 7.0943e+06) (-88.9451 -88.9451 1.07376e+07)
650           (-30.4738 -30.4738 3.64184e+06) (-3.12979 -3.12979 2.14165e+06) (5.82452 5.82452 818079) (4.00114 4.00114 219753) (1.31732 1.31732 43215.1) (0.892261 0.892261 8184.04) (1.29296 1.29296 14538.7) (12.6798 12.6798 211318) (54.8525 54.8525 1.9169e+06) (6.40958 6.40958 7.08168e+06) (-81.5198 -81.5198 1.03187e+07)
700           (-28.5197 -28.5197 3.51446e+06) (-3.79335 -3.79335 2.13278e+06) (5.21184 5.21184 860326) (4.08052 4.08052 248579) (1.51427 1.51427 53090) (1.197 1.197 10809) (1.74971 1.74971 20538.4) (14.7528 14.7528 266574) (53.5404 53.5404 2.12354e+06) (1.26341 1.26341 7.04646e+06) (-75.2248 -75.2248 9.94526e+06)
750           (-26.7944 -26.7944 3.39955e+06) (-4.31199 -4.31199 2.12094e+06) (4.61878 4.61878 897832) (4.10003 4.10003 276890) (1.70132 1.70132 63779.5) (1.54766 1.54766 14018.9) (2.28536 2.28536 28158.5) (16.7344 16.7344 327594) (51.5739 51.5739 2.3156e+06) (-2.73077 -2.73077 6.99554e+06) (-69.8231 -69.8231 9.60962e+06)
800           (-25.2638 -25.2638 3.2952e+06) (-4.71552 -4.71552 2.10694e+06) (4.05558 4.05558 931086) (4.07033 4.07033 304468) (1.87591 1.87591 75167) (1.93896 1.93896 17855.2) (2.89503 2.89503 37565.7) (18.5791 18.5791 393634) (49.1716 49.1716 2.49221e+06) (-5.82974 -5.82974 6.93383e+06) (-65.1426 -65.1426 9.3058e+06)
850           (-23.8995 -23.8995 3.1999e+06) (-5.02757 -5.02757 2.09139e+06) (3.52773 3.52773 960543) (4.00138 4.00138 331157) (2.03658 2.03658 87138) (2.36371 2.36371 22353.1) (3.57115 3.57115 48896) (20.2543 20.2543 463883) (46.5078 46.5078 2.65325e+06) (-8.23378 -8.23378 6.86486e+06) (-61.0546 -61.0546 9.02909e+06)
900           (-22.6779 -22.6779 3.1124e+06) (-5.26681 -5.26681 2.07474e+06) (3.03751 3.03751 986618) (3.90203 3.90203 356855) (2.18275 2.18275 99584.7) (2.81331 2.81331 27541.4) (4.30405 4.30405 62250.5) (21.7393 21.7393 537509) (43.7156 43.7156 2.79908e+06) (-10.0976 -10.0976 6.79116e+06) (-57.4598 -57.4598 8.77567e+06)
950           (-21.5791 -21.5791 3.03171e+06) (-5.448 -5.448 2.05733e+06) (2.5851 2.5851 1.00968e+06) (3.77986 3.77986 381496) (2.3144 2.3144 112409) (3.27829 3.27829 33443.1) (5.08255 5.08255 77695.4) (23.0235 23.0235 613690) (40.8922 40.8922 2.93037e+06) (-11.5401 -11.5401 6.71457e+06) (-54.2792 -54.2792 8.54245e+06)
1000          (-20.586 -20.586 2.95698e+06) (-5.58268 -5.58268 2.03944e+06) (2.16939 2.16939 1.03007e+06) (3.64122 3.64122 405048) (2.4319 2.4319 125523) (3.74888 3.74888 40075.6) (5.89449 5.89449 95261.5) (24.1042 24.1042 691645) (38.106 38.106 3.04804e+06) (-12.6526 -12.6526 6.63644e+06) (-51.4476 -51.4476 8.32689e+06)
1050          (-19.6839 -19.6839 2.88751e+06) (-5.6798 -5.6798 2.02126e+06) (1.78848 1.78848 1.04808e+06) (3.49124 3.49124 427503) (2.53586 2.53586 138852) (4.21564 4.21564 47451.2) (6.72724 6.72724 114946) (24.9842 24.9842 770651) (35.4022 35.4022 3.15307e+06) (-13.5048 -13.5048 6.55775e+06) (-48.9101 -48.9101 8.12686e+06)
1100          (-18.8595 -18.8595 2.82272e+06) (-5.7462 -5.7462 2.00295e+06) (1.44011 1.44011 1.06396e+06) (3.33404 3.33404 448870) (2.62699 2.62699 152330) (4.66994 4.66994 55577.5) (7.56806 7.56806 136717) (25.6699 25.6699 850050) (32.8089 32.8089 3.24648e+06) (-14.1496 -14.1496 6.47919e+06) (-46.6197 -46.6197 7.94058e+06)
1150          (-18.1014 -18.1014 2.7621e+06) (-5.78702 -5.78702 1.98462e+06) (1.12193 1.12193 1.07796e+06) (3.17285 3.17285 469173) (2.70607 2.70607 165905) (5.10432 5.10432 64457.4) (8.40443 8.40443 160515) (26.1702 26.1702 929263) (30.3417 30.3417 3.32929e+06) (-14.6273 -14.6273 6.40129e+06) (-44.5355 -44.5355 7.76655e+06)
1200          (-17.3994 -17.3994 2.70523e+06) (-5.8061 -5.8061 1.96637e+06) (0.831629 0.831629 1.09027e+06) (3.01019 3.01019 488446) (2.77389 2.77389 179534) (5.51265 5.51265 74089.7) (9.22433 9.22433 186257) (26.495 26.495 1.00779e+06) (28.0074 28.0074 3.40247e+06) (-14.968 -14.968 6.32442e+06) (-42.6223 -42.6223 7.60349e+06)
1250          (-16.7447 -16.7447 2.65173e+06) (-5.80628 -5.80628 1.94826e+06) (0.567108 0.567108 1.10108e+06) (2.84805 2.84805 506727) (2.83131 2.83131 193181) (5.8901 5.8901 84469) (10.0165 10.0165 213840) (26.6556 26.6556 1.08519e+06) (25.8076 25.8076 3.46694e+06) (-15.1947 -15.1947 6.24884e+06) (-40.8501 -40.8501 7.45028e+06)
1300          (-16.1299 -16.1299 2.60128e+06) (-5.7897 -5.7897 1.93035e+06) (0.326475 0.326475 1.11054e+06) (2.68804 2.68804 524062) (2.87921 2.87921 206822) (6.23295 6.23295 95586.5) (10.7705 10.7705 243149) (26.6636 26.6636 1.16112e+06) (23.7405 23.7405 3.52356e+06) (-15.3247 -15.3247 6.17472e+06) (-39.1941 -39.1941 7.30597e+06)
1350          (-15.5489 -15.5489 2.5536e+06) (-5.75802 -5.75802 1.91268e+06) (0.108066 0.108066 1.11881e+06) (2.5315 2.5315 540497) (2.91848 2.91848 220436) (6.53829 6.53829 107429) (11.477 11.477 274054) (26.5318 26.5318 1.23529e+06) (21.8024 21.8024 3.5731e+06) (-15.3718 -15.3718 6.1022e+06) (-37.6338 -37.6338 7.16974e+06)
1400          (-14.9967 -14.9967 2.50846e+06) (-5.71264 -5.71264 1.89527e+06) (-0.089577 -0.089577 1.126e+06) (2.37955 2.37955 556083) (2.95001 2.95001 234011) (6.80371 6.80371 119982) (12.1281 12.1281 306419) (26.2731 26.2731 1.30746e+06) (19.9889 19.9889 3.61628e+06) (-15.3469 -15.3469 6.03134e+06) (-36.1532 -36.1532 7.04085e+06)
1450          (-14.4693 -14.4693 2.46563e+06) (-5.65479 -5.65479 1.87816e+06) (-0.267746 -0.267746 1.13222e+06) (2.23321 2.23321 570869) (2.97468 2.97468 247537) (7.02706 7.02706 133226) (12.7169 12.7169 340103) (25.9014 25.9014 1.37746e+06) (18.2955 18.2955 3.65374e+06) (-15.2592 -15.2592 5.96218e+06) (-34.7404 -34.7404 6.91868e+06)
1500          (-13.9637 -13.9637 2.42492e+06) (-5.5857 -5.5857 1.86134e+06) (-0.427611 -0.427611 1.13759e+06) (2.09338 2.09338 584904) (2.99332 2.99332 261010) (7.20622 7.20622 147138) (13.2385 13.2385 374961) (25.4311 25.4311 1.44516e+06) (16.7174 16.7174 3.68606e+06) (-15.1171 -15.1171 5.89476e+06) (-33.3867 -33.3867 6.80265e+06)
1550          (-13.478 -13.478 2.38616e+06) (-5.50669 -5.50669 1.84483e+06) (-0.570265 -0.570265 1.14218e+06) (1.9609 1.9609 598236) (3.00674 3.00674 274429) (7.33902 7.33902 161695) (13.6892 13.6892 410850) (24.8772 24.8772 1.51047e+06) (15.2504 15.2504 3.71379e+06) (-14.9285 -14.9285 5.82905e+06) (-32.0869 -32.0869 6.69227e+06)
1600          (-13.011 -13.011 2.34921e+06) (-5.41923 -5.41923 1.82865e+06) (-0.696773 -0.696773 1.14607e+06) (1.83655 1.83655 610915) (3.01565 3.01565 287795) (7.42331 7.42331 176871) (14.0675 14.0675 447629) (24.2554 24.2554 1.57333e+06) (13.8906 13.8906 3.73738e+06) (-14.7012 -14.7012 5.76506e+06) (-30.8389 -30.8389 6.5871e+06)
1650          (-12.5625 -12.5625 2.31392e+06) (-5.32509 -5.32509 1.81279e+06) (-0.808214 -0.808214 1.14935e+06) (1.72107 1.72107 622984) (3.02075 3.02075 301110) (7.45709 7.45709 192637) (14.3739 14.3739 485158) (23.5819 23.5819 1.63372e+06) (12.6342 12.6342 3.75726e+06) (-14.4438 -14.4438 5.70274e+06) (-29.6438 -29.6438 6.48674e+06)
1700          (-12.1332 -12.1332 2.28018e+06) (-5.22641 -5.22641 1.79725e+06) (-0.905733 -0.905733 1.15206e+06) (1.61514 1.61514 634489) (3.02267 3.02267 314378) (7.43898 7.43898 208964) (14.6112 14.6112 523305) (22.8735 22.8735 1.69165e+06) (11.4779 11.4779 3.77381e+06) (-14.1656 -14.1656 5.64208e+06) (-28.5056 -28.5056 6.39084e+06)
1750          (-11.7249 -11.7249 2.24787e+06) (-5.12577 -5.12577 1.78203e+06) (-0.990585 -0.990585 1.15428e+06) (1.51933 1.51933 645471) (3.02198 3.02198 327604) (7.36876 7.36876 225819) (14.785 14.785 561942) (22.148 22.148 1.74712e+06) (10.4186 10.4186 3.78738e+06) (-13.8773 -13.8773 5.58302e+06) (-27.4318 -27.4318 6.29907e+06)
1800          (-11.3404 -11.3404 2.2169e+06) (-5.02627 -5.02627 1.76713e+06) (-1.06418 -1.06418 1.15605e+06) (1.43408 1.43408 655972) (3.01928 3.01928 340793) (7.24838 7.24838 243171) (14.9041 14.9041 600948) (21.4236 21.4236 1.80019e+06) (9.45316 9.45316 3.79827e+06) (-13.5908 -13.5908 5.52553e+06) (-26.4328 -26.4328 6.21115e+06)
1850          (-10.9832 -10.9832 2.18718e+06) (-4.9314 -4.9314 1.75255e+06) (-1.12809 -1.12809 1.15743e+06) (1.35959 1.35959 666029) (3.01514 3.01514 353951) (7.08305 7.08305 260987) (14.9805 14.9805 640211) (20.7187 20.7187 1.85088e+06) (8.57828 8.57828 3.80676e+06) (-13.3195 -13.3195 5.46956e+06) (-25.5212 -25.5212 6.12681e+06)
1900          (-10.657 -10.657 2.15862e+06) (-4.84484 -4.84484 1.73828e+06) (-1.18407 -1.18407 1.15844e+06) (1.29567 1.29567 675679) (3.01022 3.01022 367083) (6.88241 6.88241 279234) (15.0294 15.0294 679623) (20.0508 20.0508 1.89927e+06) (7.78989 7.78989 3.8131e+06) (-13.0768 -13.0768 5.41507e+06) (-24.7103 -24.7103 6.04583e+06)
1950          (-10.3648 -10.3648 2.13116e+06) (-4.76993 -4.76993 1.72432e+06) (-1.23394 -1.23394 1.15915e+06) (1.24161 1.24161 684955) (3.00532 3.00532 380194) (6.66111 6.66111 297878) (15.0681 15.0681 719087) (19.4348 19.4348 1.94542e+06) (7.08272 7.08272 3.8175e+06) (-12.8752 -12.8752 5.36201e+06) (-24.0106 -24.0106 5.96798e+06)
2000          (-10.1076 -10.1076 2.10473e+06) (-4.70898 -4.70898 1.71067e+06) (-1.27945 -1.27945 1.15957e+06) (1.19624 1.19624 693890) (3.0015 3.0015 393289) (6.43807 6.43807 316885) (15.1138 15.1138 758513) (18.8806 18.8806 1.9894e+06) (6.44986 6.44986 3.82016e+06) (-12.7236 -12.7236 5.31034e+06) (-23.4265 -23.4265 5.89306e+06)
2050          (-9.8833 -9.8833 2.07925e+06) (-4.66263 -4.66263 1.69731e+06) (-1.32201 -1.32201 1.15974e+06) (1.15806 1.15806 702514) (3.00013 3.00013 406371) (6.23398 6.23398 336223) (15.1805 15.1805 797817) (18.3916 18.3916 2.03129e+06) (5.88272 5.88272 3.82127e+06) (-12.6254 -12.6254 5.26001e+06) (-22.9532 -22.9532 5.82091e+06)
2100          (-9.68673 -9.68673 2.05469e+06) (-4.62955 -4.62955 1.68424e+06) (-1.36249 -1.36249 1.15969e+06) (1.1256 1.1256 710854) (3.00275 3.00275 419445) (6.06754 6.06754 355859) (15.2765 15.2765 836924) (17.9637 17.9637 2.07117e+06) (5.37167 5.37167 3.82098e+06) (-12.5773 -12.5773 5.21098e+06) (-22.5759 -22.5759 5.75136e+06)
2150          (-9.51058 -9.51058 2.03098e+06) (-4.60672 -4.60672 1.67146e+06) (-1.40114 -1.40114 1.15945e+06) (1.09779 1.09779 718938) (3.01082 3.01082 432514) (5.95208 5.95208 375761) (15.403 15.403 875766) (17.5875 17.5875 2.10911e+06) (4.90703 4.90703 3.81945e+06) (-12.5704 -12.5704 5.1632e+06) (-22.273 -22.273 5.68425e+06)
2200          (-9.3467 -9.3467 2.00809e+06) (-4.5901 -4.5901 1.65896e+06) (-1.43765 -1.43765 1.15905e+06) (1.07403 1.07403 726790) (3.02538 3.02538 445579) (5.89395 5.89395 395896) (15.5551 15.5551 914281) (17.2501 17.2501 2.1452e+06) (4.48011 4.48011 3.81679e+06) (-12.592 -12.592 5.11663e+06) (-22.0198 -22.0198 5.61945e+06)
2250          (0.6131 0.6131 1.986e+06) (-2.94143 -2.94143 1.6468e+06) (-0.0450862 -0.0450862 1.15852e+06) (-0.249296 -0.249296 734405) (-0.367792 -0.367792 458585) (-1.2799 -1.2799 416318) (-0.615435 -0.615435 952438) (-0.409431 -0.409431 2.17953e+06) (-0.26202 -0.26202 3.81314e+06) (1.1219 1.1219 5.0712e+06) (8.86594 8.86594 5.55674e+06)
2300          (-0.516758 -0.516758 1.96464e+06) (3.41078 3.41078 1.6349e+06) (1.17763 1.17763 1.15787e+06) (-0.541199 -0.541199 741833) (-0.858725 -0.858725 471588) (0.139859 0.139859 436821) (0.356384 0.356384 990153) (-0.513868 -0.513868 2.21217e+06) (-3.32071 -3.32071 3.8086e+06) (-11.3541 -11.3541 5.02692e+06) (-14.0825 -14.0825 5.49617e+06)
2350          (0.90067 0.90067 1.94397e+06) (-1.96123 -1.96123 1.62327e+06) (-1.96809 -1.96809 1.15711e+06) (0.0991615 0.0991615 749092) (-0.022777 -0.022777 484595) (-1.21561 -1.21561 457464) (-0.267659 -0.267659 1.02739e+06) (1.35159 1.35159 2.24318e+06) (6.43401 6.43401 3.80325e+06) (14.0345 14.0345 4.98372e+06) (6.24951 6.24951 5.43753e+06)
2400          (3.29306 3.29306 1.92407e+06) (-0.801965 -0.801965 1.61196e+06) (-2.5918 -2.5918 1.15627e+06) (-0.236418 -0.236418 756159) (-0.10235 -0.10235 497524) (-2.7976 -2.7976 478271) (-0.0668363 -0.0668363 1.06413e+06) (3.46106 3.46106 2.27266e+06) (11.3272 11.3272 3.79719e+06) (19.198 19.198 4.94157e+06) (8.88724 8.88724 5.38073e+06)
2450          (-1.33924 -1.33924 1.90456e+06) (-2.46247 -2.46247 1.60076e+06) (-2.90595 -2.90595 1.15535e+06) (1.082 1.082 763177) (1.35244 1.35244 510614) (-2.07819 -2.07819 499056) (0.135173 0.135173 1.1003e+06) (4.78908 4.78908 2.30064e+06) (13.2704 13.2704 3.79049e+06) (19.6687 19.6687 4.90047e+06) (8.37029 8.37029 5.32575e+06)
2500          (-3.21962 -3.21962 1.88588e+06) (0.401146 0.401146 1.58996e+06) (3.79505 3.79505 1.15439e+06) (2.45438 2.45438 769986) (-0.623644 -0.623644 523526) (1.41065 1.41065 520042) (3.20597 3.20597 1.13592e+06) (-0.0467404 -0.0467404 2.32723e+06) (-9.4879 -9.4879 3.78323e+06) (-17.5565 -17.5565 4.86034e+06) (-13.3651 -13.3651 5.27239e+06)
2550          (-3.30174 -3.30174 1.86769e+06) (-1.05057 -1.05057 1.57937e+06) (0.187042 0.187042 1.15338e+06) (1.03855 1.03855 776710) (1.42787 1.42787 536472) (4.15581 4.15581 540968) (6.10289 6.10289 1.17095e+06) (5.88366 5.88366 2.35249e+06) (1.60334 1.60334 3.77547e+06) (-3.59269 -3.59269 4.82115e+06) (-8.71952 -8.71952 5.22062e+06)
2600          (-2.7173 -2.7173 1.85002e+06) (-0.834308 -0.834308 1.56901e+06) (-0.0919811 -0.0919811 1.15235e+06) (0.522071 0.522071 783352) (0.936389 0.936389 549429) (6.15603 6.15603 561925) (8.44026 8.44026 1.20536e+06) (7.38492 7.38492 2.37647e+06) (1.00857 1.00857 3.76726e+06) (-6.00182 -6.00182 4.78288e+06) (-13.8099 -13.8099 5.17038e+06)
2650          (-0.189548 -0.189548 1.83287e+06) (0.108871 0.108871 1.55888e+06) (0.316194 0.316194 1.15129e+06) (0.37419 0.37419 789908) (0.271341 0.271341 562371) (1.99148 1.99148 582872) (2.66283 2.66283 1.23914e+06) (2.45967 2.45967 2.39925e+06) (0.607796 0.607796 3.75867e+06) (-1.53734 -1.53734 4.7455e+06) (-2.97356 -2.97356 5.12157e+06)
2700          (2.20481 2.20481 1.81616e+06) (1.4196 1.4196 1.54896e+06) (0.782712 0.782712 1.15023e+06) (-0.00444627 -0.00444627 796413) (-0.936141 -0.936141 575345) (-1.54021 -1.54021 603801) (-3.86898 -3.86898 1.27228e+06) (-3.59994 -3.59994 2.42087e+06) (-1.15067 -1.15067 3.74972e+06) (1.83839 1.83839 4.709e+06) (3.05323 3.05323 5.07417e+06)
2750          (-2.40424 -2.40424 1.8e+06) (-0.751508 -0.751508 1.5393e+06) (-0.0836408 -0.0836408 1.14916e+06) (0.491636 0.491636 802825) (0.958365 0.958365 588248) (6.75142 6.75142 624641) (7.93022 7.93022 1.30476e+06) (6.48019 6.48019 2.44139e+06) (0.629966 0.629966 3.74048e+06) (-5.49966 -5.49966 4.67333e+06) (-12.4277 -12.4277 5.02808e+06)
2800          (0.126955 0.126955 1.78425e+06) (0.214205 0.214205 1.52983e+06) (0.34303 0.34303 1.14809e+06) (0.333227 0.333227 809202) (0.156961 0.156961 601171) (1.69037 1.69037 645436) (1.88057 1.88057 1.33658e+06) (1.66849 1.66849 2.46086e+06) (0.413782 0.413782 3.73098e+06) (-0.998985 -0.998985 4.63847e+06) (-1.60508 -1.60508 4.98326e+06)
2850          (1.73938 1.73938 1.7689e+06) (1.17561 1.17561 1.52055e+06) (0.671283 0.671283 1.14704e+06) (-0.00425147 -0.00425146 815552) (-0.84541 -0.84541 614113) (-0.825225 -0.825225 666156) (-2.96925 -2.96925 1.36772e+06) (-2.68084 -2.68084 2.47934e+06) (-0.887915 -0.887915 3.72124e+06) (1.26713 1.26713 4.60441e+06) (1.91913 1.91913 4.93967e+06)
2900          (-4.89915 -4.89915 1.75404e+06) (-1.61048 -1.61048 1.51155e+06) (0.0500796 0.0500796 1.14602e+06) (1.5477 1.5477 821823) (2.2032 2.2032 626943) (7.89238 7.89238 686740) (6.8801 6.8801 1.39821e+06) (5.64522 5.64522 2.49689e+06) (0.931292 0.931292 3.71132e+06) (-4.1259 -4.1259 4.57109e+06) (-11.3065 -11.3065 4.89722e+06)
2950          (-4.54062 -4.54062 1.73955e+06) (-1.58189 -1.58189 1.50273e+06) (-0.023787 -0.023787 1.14502e+06) (1.3852 1.3852 828072) (1.72191 1.72191 639765) (9.29957 9.29957 707227) (6.9422 6.9422 1.42803e+06) (5.55899 5.55899 2.51354e+06) (0.83405 0.83405 3.70123e+06) (-4.11123 -4.11123 4.53851e+06) (-11.0685 -11.0685 4.85588e+06)
3000          (-4.17923 -4.17923 1.72545e+06) (-1.50227 -1.50227 1.49412e+06) (-0.110116 -0.110116 1.14406e+06) (1.10747 1.10747 834296) (1.53819 1.53819 652564) (10.0659 10.0659 727574) (6.78282 6.78282 1.45719e+06) (5.32551 5.32551 2.52934e+06) (0.738685 0.738685 3.691e+06) (-3.99711 -3.99711 4.50665e+06) (-10.6887 -10.6887 4.81561e+06)
3050          (-3.80258 -3.80258 1.71171e+06) (-1.40138 -1.40138 1.48571e+06) (-0.225195 -0.225195 1.14313e+06) (0.822873 0.822873 840499) (1.45918 1.45918 665334) (10.6097 10.6097 747773) (6.60147 6.60147 1.48568e+06) (5.0914 5.0914 2.54433e+06) (0.649946 0.649946 3.68065e+06) (-3.88502 -3.88502 4.47548e+06) (-10.3236 -10.3236 4.77638e+06)
3100          (-3.42057 -3.42057 1.69832e+06) (-1.29837 -1.29837 1.47748e+06) (-0.3542 -0.3542 1.14225e+06) (0.567834 0.567834 846687) (1.42048 1.42048 678071) (11.0188 11.0188 767810) (6.41863 6.41863 1.5135e+06) (4.86667 4.86667 2.55855e+06) (0.567826 0.567826 3.67021e+06) (-3.77643 -3.77643 4.445e+06) (-9.97338 -9.97338 4.73814e+06)
3150          (-3.04986 -3.04986 1.68528e+06) (-1.20225 -1.20225 1.46945e+06) (-0.480781 -0.480781 1.14141e+06) (0.351643 0.351643 852861) (1.39769 1.39769 690769) (11.3261 11.3261 787677) (6.2376 6.2376 1.54068e+06) (4.65212 4.65212 2.57203e+06) (0.492061 0.492061 3.6597e+06) (-3.67126 -3.67126 4.41516e+06) (-9.63761 -9.63761 4.70085e+06)
3200          (-2.70631 -2.70631 1.67257e+06) (-1.11631 -1.11631 1.4616e+06) (-0.593994 -0.593994 1.14062e+06) (0.175128 0.175128 859026) (1.38054 1.38054 703424) (11.5514 11.5514 807361) (6.05945 6.05945 1.5672e+06) (4.44778 4.44778 2.58482e+06) (0.422396 0.422396 3.64913e+06) (-3.56941 -3.56941 4.38596e+06) (-9.316 -9.316 4.66448e+06)
3250          (-2.40068 -2.40068 1.66017e+06) (-1.04121 -1.04121 1.45394e+06) (-0.688182 -0.688182 1.13988e+06) (0.0357161 0.0357161 865185) (1.36453 1.36453 716031) (11.7104 11.7104 826855) (5.88488 5.88488 1.59308e+06) (4.25355 4.25355 2.59694e+06) (0.358552 0.358552 3.63852e+06) (-3.4708 -3.4708 4.35739e+06) (-9.0083 -9.0083 4.629e+06)
3300          (-2.138 -2.138 1.64809e+06) (-0.976484 -0.976484 1.44646e+06) (-0.761548 -0.761548 1.1392e+06) (-0.0707096 -0.0707096 871338) (1.34785 1.34785 728585) (11.8167 11.8167 846149) (5.71445 5.71445 1.61833e+06) (4.06925 4.06925 2.60843e+06) (0.3002 0.3002 3.62789e+06) (-3.37542 -3.37542 4.32941e+06) (-8.71423 -8.71423 4.59437e+06)
3350          (-1.91862 -1.91862 1.6363e+06) (-0.921216 -0.921216 1.43916e+06) (-0.814737 -0.814737 1.13858e+06) (-0.148834 -0.148834 877488) (1.32989 1.32989 741082) (11.8819 11.8819 865235) (5.54855 5.54855 1.64295e+06) (3.89458 3.89458 2.61932e+06) (0.246969 0.246969 3.61724e+06) (-3.28326 -3.28326 4.30201e+06) (-8.43347 -8.43347 4.56056e+06)
3400          (-1.73987 -1.73987 1.6248e+06) (-0.874303 -0.874303 1.43203e+06) (-0.849719 -0.849719 1.13802e+06) (-0.203317 -0.203317 883636) (1.31062 1.31062 753518) (11.9152 11.9152 884107) (5.38746 5.38746 1.66696e+06) (3.72918 3.72918 2.62964e+06) (0.198466 0.198466 3.6066e+06) (-3.1943 -3.1943 4.27519e+06) (-8.16561 -8.16561 4.52755e+06)
3450          (-1.59744 -1.59744 1.61359e+06) (-0.834613 -0.834613 1.42508e+06) (-0.869037 -0.869037 1.13752e+06) (-0.238464 -0.238464 889783) (1.29025 1.29025 765888) (11.9241 11.9241 902759) (5.23135 5.23135 1.69037e+06) (3.57264 3.57264 2.63942e+06) (0.154293 0.154293 3.59597e+06) (-3.10853 -3.10853 4.24891e+06) (-7.91021 -7.91021 4.4953e+06)
3500          (-1.48636 -1.48636 1.60264e+06) (-0.801071 -0.801071 1.4183e+06) (-0.875338 -0.875338 1.13709e+06) (-0.258071 -0.258071 895930) (1.26906 1.26906 778189) (11.9143 11.9143 921183) (5.08029 5.08029 1.71318e+06) (3.4245 3.4245 2.64868e+06) (0.114066 0.114066 3.58535e+06) (-3.02592 -3.02592 4.22318e+06) (-7.66677 -7.66677 4.46379e+06)
3550          (-1.40165 -1.40165 1.59196e+06) (-0.772695 -0.772695 1.41168e+06) (-0.871123 -0.871123 1.13672e+06) (-0.265384 -0.265384 902077) (1.24732 1.24732 790418) (11.8901 11.8901 939376) (4.93431 4.93431 1.73541e+06) (3.28434 3.28434 2.65745e+06) (0.0774189 0.0774189 3.57477e+06) (-2.94643 -2.94643 4.19796e+06) (-7.43479 -7.43479 4.433e+06)
3600          (-1.33867 -1.33867 1.58154e+06) (-0.748621 -0.748621 1.40523e+06) (-0.858631 -0.858631 1.13642e+06) (-0.263123 -0.263123 908225) (1.22531 1.22531 802569) (11.8548 11.8548 957334) (4.79341 4.7934 1.75707e+06) (3.15172 3.15172 2.66575e+06) (0.0440153 0.0440153 3.56423e+06) (-2.87002 -2.87002 4.17325e+06) (-7.21376 -7.21376 4.4029e+06)
3650          (-1.29329 -1.29329 1.57136e+06) (-0.728104 -0.728104 1.39894e+06) (-0.839799 -0.839799 1.13619e+06) (-0.253538 -0.253538 914373) (1.20326 1.20326 814641) (11.8112 11.8112 975052) (4.65753 4.65753 1.77817e+06) (3.02621 3.02621 2.67361e+06) (0.0135469 0.0135469 3.55373e+06) (-2.79664 -2.79664 4.14904e+06) (-7.00322 -7.00322 4.37347e+06)
3700          (-1.26194 -1.26194 1.56144e+06) (-0.710516 -0.710516 1.39282e+06) (-0.816267 -0.816267 1.13603e+06) (-0.238463 -0.238463 920522) (1.18137 1.18137 826629) (11.761 11.761 992528) (4.52662 4.52662 1.79872e+06) (2.90743 2.90743 2.68104e+06) (-0.0142659 -0.0142658 3.54329e+06) (-2.72622 -2.72622 4.1253e+06) (-6.80268 -6.80268 4.34469e+06)
3750          (-1.2416 -1.2416 1.55174e+06) (-0.695336 -0.695336 1.38685e+06) (-0.789397 -0.789397 1.13594e+06) (-0.219386 -0.219386 926670) (1.15984 1.15984 838530) (11.706 11.706 1.00976e+06) (4.40062 4.40062 1.81873e+06) (2.795 2.795 2.68806e+06) (-0.0396753 -0.0396752 3.5329e+06) (-2.65871 -2.65871 4.10204e+06) (-6.61171 -6.61171 4.31654e+06)
3800          (-1.22977 -1.22977 1.54228e+06) (-0.682136 -0.682136 1.38104e+06) (-0.760304 -0.760304 1.13591e+06) (-0.197493 -0.197493 932818) (1.13881 1.13881 850342) (11.6474 11.6474 1.02674e+06) (4.27943 4.27943 1.83822e+06) (2.68858 2.68858 2.6947e+06) (-0.0629085 -0.0629084 3.52257e+06) (-2.59402 -2.59402 4.07923e+06) (-6.42989 -6.42989 4.289e+06)
3850          (-1.2244 -1.2244 1.53305e+06) (-0.670574 -0.670574 1.37538e+06) (-0.72989 -0.72989 1.13596e+06) (-0.173727 -0.173727 938965) (1.11842 1.11842 862061) (11.5862 11.5862 1.04347e+06) (4.16299 4.16299 1.8572e+06) (2.58784 2.58784 2.70097e+06) (-0.0841696 -0.0841696 3.51231e+06) (-2.5321 -2.5321 4.05686e+06) (-6.25682 -6.25682 4.26205e+06)
3900          (-1.22385 -1.22385 1.52403e+06) (-0.660375 -0.660375 1.36987e+06) (-0.698869 -0.698869 1.13608e+06) (-0.148821 -0.148821 945110) (1.09879 1.09879 873686) (11.5232 11.5232 1.05996e+06) (4.05119 4.05119 1.87567e+06) (2.49249 2.49249 2.70689e+06) (-0.103643 -0.103643 3.50212e+06) (-2.47286 -2.47286 4.03493e+06) (-6.09212 -6.09212 4.23568e+06)
3950          (-1.22682 -1.22682 1.51523e+06) (-0.651324 -0.651324 1.36451e+06) (-0.6678 -0.6678 1.13626e+06) (-0.123339 -0.123339 951252) (1.08004 1.08004 885213) (11.4593 11.4593 1.07619e+06) (3.94395 3.94395 1.89365e+06) (2.40222 2.40222 2.71247e+06) (-0.121493 -0.121493 3.49201e+06) (-2.41625 -2.41625 4.01342e+06) (-5.93546 -5.93546 4.20985e+06)
4000          (-1.23231 -1.23231 1.50664e+06) (-0.643254 -0.643254 1.3593e+06) (-0.63711 -0.63711 1.13652e+06) (-0.0977011 -0.0977011 957390) (1.06224 1.06224 896640) (11.3949 11.3949 1.09217e+06) (3.84116 3.84116 1.91116e+06) (2.31679 2.31679 2.71774e+06) (-0.137871 -0.137871 3.48198e+06) (-2.36218 -2.36218 3.99232e+06) (-5.78648 -5.78648 4.18457e+06)
4050          (-1.23956 -1.23956 1.49826e+06) (-0.636037 -0.636037 1.35423e+06) (-0.607112 -0.607112 1.13685e+06) (-0.0722164 -0.0722164 963523) (1.04547 1.04547 907965) (11.3306 11.3306 1.1079e+06) (3.74272 3.74272 1.92819e+06) (2.23594 2.23594 2.72269e+06) (-0.152911 -0.152911 3.47202e+06) (-2.31058 -2.31058 3.97163e+06) (-5.64487 -5.64487 4.15982e+06)
4100          (-1.24799 -1.24799 1.49008e+06) (-0.629575 -0.629575 1.3493e+06) (-0.578031 -0.578031 1.13724e+06) (-0.047099 -0.047099 969650) (1.02978 1.02978 919187) (11.2668 11.2668 1.12338e+06) (3.64852 3.64852 1.94477e+06) (2.15942 2.15942 2.72736e+06) (-0.166736 -0.166736 3.46215e+06) (-2.26138 -2.26138 3.95132e+06) (-5.51033 -5.51033 4.13557e+06)
4150          (-1.25718 -1.25718 1.48209e+06) (-0.623795 -0.623795 1.34452e+06) (-0.550018 -0.550018 1.1377e+06) (-0.0224897 -0.0224897 975770) (1.01522 1.01522 930302) (11.2038 11.2038 1.13861e+06) (3.55845 3.55845 1.96091e+06) (2.08702 2.08702 2.73176e+06) (-0.179457 -0.179457 3.45237e+06) (-2.2145 -2.2145 3.93139e+06) (-5.38257 -5.38257 4.11181e+06)
4200          (-1.26685 -1.26685 1.4743e+06) (-0.61864 -0.61864 1.33987e+06) (-0.523162 -0.523162 1.13823e+06) (0.00152914 0.00152914 981882) (1.00183 1.00183 941310) (11.1419 11.1419 1.15358e+06) (3.47241 3.47241 1.97661e+06) (2.01852 2.01852 2.73588e+06) (-0.191176 -0.191176 3.44267e+06) (-2.16987 -2.16987 3.91184e+06) (-5.26131 -5.26131 4.08854e+06)
4250          (-1.27682 -1.27682 1.46669e+06) (-0.61407 -0.61407 1.33535e+06) (-0.497507 -0.497507 1.13883e+06) (0.0249203 0.0249203 987985) (0.989624 0.989624 952209) (11.0814 11.0814 1.16831e+06) (3.39027 3.39027 1.99188e+06) (1.95372 1.95372 2.73976e+06) (-0.201985 -0.201985 3.43306e+06) (-2.12743 -2.12743 3.89265e+06) (-5.14628 -5.14628 4.06573e+06)
4300          (-1.28695 -1.28695 1.45927e+06) (-0.610051 -0.610051 1.33098e+06) (-0.47306 -0.47306 1.13949e+06) (0.0476807 0.0476807 994077) (0.97862 0.97862 962997) (11.0225 11.0225 1.18279e+06) (3.31191 3.31191 2.00675e+06) (1.89243 1.89243 2.74339e+06) (-0.211968 -0.211968 3.42354e+06) (-2.08708 -2.08708 3.87381e+06) (-5.03723 -5.03723 4.04338e+06)