# Probe 0 (0.0015 0.0015 0)
# Probe 1 (0.0015 0.0015 0.01)
# Probe 2 (0.0015 0.0015 0.02)
# Probe 3 (0.0015 0.0015 0.03)
# Probe 4 (0.0015 0.0015 0.04)
# Probe 5 (0.0015 0.0015 0.05)
# Probe 6 (0.0015 0.0015 0.06)
# Probe 7 (0.0015 0.0015 0.07)
# Probe 8 (0.0015 0.0015 0.08)
# Probe 9 (0.0015 0.0015 0.09)
# Probe 10 (0.0015 0.0015 0.1)
# Time        0             1             2             3             4             5             6             7             8             9             10           
50            (-0.00279055 -0.00279055 -7928.91) (0.00156207 0.00156207 -449.594) (0.000233147 0.000233147 -11.2321) (8.55129e-06 8.55128e-06 -0.207754) (2.97037e-07 2.97043e-07 -0.165288) (1.0173e-05 1.0173e-05 -2.49488) (1.43485e-06 1.43485e-06 -0.0539743) (4.11455e-07 4.11461e-07 -0.00589689) (1.58382e-05 1.58382e-05 -1.6563) (0.00175175 0.00175175 -339.073) (0.0209216 0.0209216 -20095.3)
100           (0.00417461 0.00417461 -6432.3) (-0.00395962 -0.00395962 -814.847) (-0.000141587 -0.000141587 -40.8334) (3.95892e-06 3.9589e-06 -1.324) (-1.43344e-06 -1.43342e-06 -0.321372) (8.97593e-06 8.97594e-06 -1.69534) (-1.05901e-06 -1.05899e-06 -0.124018) (-1.61428e-06 -1.61428e-06 -0.0678344) (-0.000245525 -0.000245525 -10.1387) (-0.0124751 -0.0124751 -933.395) (0.0200841 0.0200841 -14926.2)
150           (-0.0290837 -0.0290837 -5526.73) (0.00580353 0.00580353 -1096.09) (0.00126485 0.00126485 -88.0902) (9.89818e-05 9.89818e-05 -4.31267) (7.49234e-06 7.49236e-06 -0.53501) (-1.40195e-05 -1.40195e-05 -1.34641) (2.97289e-06 2.9729e-06 -0.194872) (1.51529e-05 1.51529e-05 -0.345387) (0.00110495 0.00110495 -32.2462) (0.0361116 0.0361116 -1649.54) (-0.0819615 -0.0819615 -12303)
200           (0.00712804 0.00712804 -4909.93) (0.00061122 0.00061122 -1297.34) (0.000755365 0.000755365 -147.607) (0.000124962 0.000124962 -10.0007) (1.0055e-05 1.00551e-05 -0.919409) (2.34156e-06 2.34156e-06 -1.16135) (-5.00962e-07 -5.00956e-07 -0.262784) (-5.81967e-06 -5.81968e-06 -1.16031) (-0.000429492 -0.000429492 -73.7116) (-0.00718747 -0.00718747 -2337.65) (0.0401652 0.0401652 -10696)
250           (0.0185482 0.0185482 -4457.64) (-0.00739322 -0.00739322 -1437.1) (-0.00306708 -0.00306708 -213.453) (0.000547523 0.000547523 -18.873) (0.000519564 0.000519564 -1.63234) (0.000254817 0.000254817 -1.06631) (-5.61882e-06 -5.6188e-06 -0.339064) (-0.000184551 -0.000184551 -3.00473) (-0.00588777 -0.00588777 -137.503) (-0.0433387 -0.0433387 -2910.35) (0.0289232 0.0289232 -9586.99)
300           (0.0177554 0.0177554 -4108.91) (-0.00488278 -0.00488278 -1532.53) (-0.00409864 -0.00409864 -280.803) (-0.000496322 -0.000496322 -31.0198) (0.000541154 0.000541154 -2.84706) (0.000859067 0.000859067 -1.04992) (-9.58711e-06 -9.58708e-06 -0.450994) (-0.000369836 -0.000369836 -6.4969) (-0.00843489 -0.00843489 -223.42) (-0.0372026 -0.0372026 -3342.93) (0.0262315 0.0262315 -8763.46)
350           (0.0162425 0.0162425 -3829.93) (-0.00308896 -0.00308896 -1596.58) (-0.00411206 -0.00411206 -346.345) (-0.00091547 -0.00091547 -46.1966) (0.000314234 0.000314234 -4.72305) (0.000783069 0.000783069 -1.12674) (-1.99574e-05 -1.99574e-05 -0.644002) (-0.000640669 -0.000640669 -12.3063) (-0.0108034 -0.0108034 -328.709) (-0.0289921 -0.0289921 -3648.28) (0.0237068 0.0237068 -8120.92)
400           (0.0201985 0.0201985 -3600.54) (-0.00227227 -0.00227227 -1638.49) (-0.00149563 -0.00149563 -408.081) (-0.000352819 -0.000352819 -63.9297) (-4.26546e-05 -4.26546e-05 -7.38154) (-2.25902e-05 -2.25903e-05 -1.32569) (-2.66426e-05 -2.66426e-05 -0.984059) (-0.00070452 -0.00070452 -21.0865) (-0.00934425 -0.00934425 -449.125) (-0.0150599 -0.0150599 -3852.3) (0.0566093 0.0566093 -7601.88)
450           (0.0325016 0.0325016 -3407.6) (-0.0014386 -0.0014386 -1664.59) (-0.0061847 -0.0061847 -465.054) (-0.00226524 -0.00226524 -83.7) (-0.000415026 -0.000415026 -10.9123) (-0.000123312 -0.000123312 -1.68391) (-0.000134957 -0.000134957 -1.55695) (-0.00272825 -0.00272825 -33.3613) (-0.0274928 -0.0274928 -579.379) (-0.0260466 -0.0260466 -3981.86) (0.0703592 0.0703592 -7170.98)
500           (0.0299518 0.0299518 -3242.48) (-0.000117024 -0.000117024 -1679.34) (-0.00592482 -0.00592482 -516.889) (-0.00259356 -0.00259356 -104.944) (-0.000559707 -0.000559707 -15.3537) (-0.000213475 -0.000213475 -2.24225) (-0.000228534 -0.000228534 -2.4662) (-0.00378417 -0.00378417 -49.5096) (-0.0301516 -0.0301516 -714.511) (-0.0186616 -0.0186616 -4057.83) (0.0629185 0.0629185 -6805.81)
550           (0.0276835 0.0276835 -3099.14) (0.000949878 0.000949878 -1685.89) (-0.00552205 -0.00552205 -563.607) (-0.00284481 -0.00284481 -127.141) (-0.000715413 -0.000715413 -20.7035) (-0.000338041 -0.000338041 -3.04445) (-0.000358508 -0.000358508 -3.82906) (-0.00492264 -0.00492264 -69.7324) (-0.0315176 -0.0315176 -850.151) (-0.0124524 -0.0124524 -4095.89) (0.0566432 0.0566432 -6491.24)
600           (0.0256903 0.0256903 -2973.2) (0.00179441 0.00179441 -1686.48) (-0.00505952 -0.00505952 -605.45) (-0.00302589 -0.00302589 -149.838) (-0.000875541 -0.000875541 -26.9246) (-0.000500093 -0.000500093 -4.13302) (-0.000530767 -0.000530767 -5.77058) (-0.00612172 -0.00612172 -94.0549) (-0.0319871 -0.0319871 -982.784) (-0.00754363 -0.00754363 -4107.28) (0.0514952 0.0514952 -6216.59)
650           (0.0239434 0.0239434 -2861.41) (0.00245909 0.00245909 -1682.7) (-0.00457636 -0.00457636 -642.77) (-0.00314372 -0.00314372 -172.662) (-0.00103503 -0.00103503 -33.9544) (-0.000701055 -0.000701055 -5.54794) (-0.000748568 -0.000748568 -8.41727) (-0.00734104 -0.00734104 -122.344) (-0.0317571 -0.0317571 -1109.8) (-0.00371086 -0.00371086 -4099.97) (0.0471963 0.0471963 -5974.06)
700           (0.0224081 0.0224081 -2761.33) (0.00298046 0.00298046 -1675.74) (-0.00409497 -0.00409497 -675.964) (-0.00320609 -0.00320609 -195.31) (-0.00118977 -0.00118977 -41.7131) (-0.00094049 -0.00094049 -7.32554) (-0.001013 -0.001013 -11.8908) (-0.00854119 -0.00854119 -154.334) (-0.0309975 -0.0309975 -1229.43) (-0.000731457 -0.000731457 -4079.58) (0.0435517 0.0435517 -5757.85)
750           (0.0210525 0.0210525 -2671.05) (0.00338796 0.00338796 -1666.44) (-0.003629 -0.003629 -705.432) (-0.00322141 -0.00322141 -217.554) (-0.00133674 -0.00133674 -50.112) (-0.00121601 -0.00121601 -9.49797) (-0.00132312 -0.00132312 -16.3025) (-0.00968847 -0.00968847 -189.662) (-0.029859 -0.029859 -1340.63) (0.00158099 0.00158099 -4050.1) (0.0404244 0.0404244 -5563.53)
800           (0.01985 0.01985 -2589.06) (0.00370501 0.00370501 -1655.44) (-0.0031865 -0.0031865 -731.56) (-0.00319809 -0.00319809 -239.222) (-0.00147391 -0.00147391 -59.0592) (-0.00152345 -0.00152345 -12.093) (-0.00167609 -0.00167609 -21.7489) (-0.0107565 -0.0107565 -227.896) (-0.0284681 -0.0284681 -1442.88) (0.00337516 0.00337516 -4014.38) (0.0377146 0.0377146 -5387.64)
850           (0.018778 0.018778 -2514.18) (0.00395019 0.00395019 -1643.22) (-0.00277176 -0.00277176 -754.705) (-0.00314391 -0.00314391 -260.192) (-0.00160016 -0.00160016 -68.4649) (-0.00185718 -0.00185718 -15.1339) (-0.00206753 -0.00206753 -28.3085) (-0.0117263 -0.0117263 -268.567) (-0.0269259 -0.0269259 -1536.11) (0.00476699 0.00476699 -3974.44) (0.0353479 0.0353479 -5227.43)
900           (0.0178182 0.0178182 -2445.44) (0.00413817 0.00413817 -1630.13) (-0.00238659 -0.00238659 -775.192) (-0.00306585 -0.00306585 -280.383) (-0.001715 -0.001715 -78.2443) (-0.00221044 -0.00221044 -18.6399) (-0.00249185 -0.00249185 -36.0402) (-0.0125861 -0.0125861 -311.193) (-0.0253093 -0.0253093 -1620.54) (0.00584604 0.00584604 -3931.77) (0.0332666 0.0332666 -5080.71)
950           (0.0169548 0.0169548 -2382.03) (0.00428053 0.00428053 -1616.46) (-0.00203113 -0.00203113 -793.314) (-0.00296986 -0.00296986 -299.743) (-0.00181843 -0.00181843 -88.3203) (-0.00257577 -0.00257577 -22.6262) (-0.00294257 -0.00294257 -44.9821) (-0.0133296 -0.0133296 -355.299) (-0.0236747 -0.0236747 -1696.55) (0.00668119 0.00668119 -3887.43) (0.0314252 0.0314252 -4945.69)
1000          (0.0161746 0.0161746 -2323.32) (0.00438635 0.00438635 -1602.4) (-0.0017045 -0.0017045 -809.333) (-0.00286093 -0.00286093 -318.248) (-0.00191076 -0.00191076 -98.6243) (-0.00294551 -0.00294551 -27.1043) (-0.00341264 -0.00341264 -55.1521) (-0.0139553 -0.0139553 -400.431) (-0.0220617 -0.0220617 -1764.68) (0.00732528 0.00732528 -3842.2) (0.0297858 0.0297858 -4820.89)
1050          (0.0154657 0.0154657 -2268.74) (0.00446265 0.00446265 -1588.12) (-0.00140522 -0.00140522 -823.48) (-0.00274309 -0.00274309 -335.891) (-0.00199244 -0.00199244 -109.097) (-0.00331225 -0.00331225 -32.0823) (-0.00389477 -0.00389477 -66.5488) (-0.0144647 -0.0144647 -446.172) (-0.0204963 -0.0204963 -1825.48) (0.00781865 0.00781865 -3796.64) (0.0283168 0.0283168 -4705.08)
1100          (0.014818 0.014818 -2217.83) (0.00451482 0.00451482 -1573.73) (-0.00113151 -0.00113151 -835.962) (-0.00261958 -0.00261958 -352.68) (-0.00206405 -0.00206405 -119.687) (-0.0036692 -0.0036692 -37.565) (-0.00438156 -0.00438156 -79.1532) (-0.0148617 -0.0148617 -492.14) (-0.0189949 -0.0189949 -1879.56) (0.00819199 0.00819199 -3751.16) (0.0269907 0.0269907 -4597.24)
1150          (0.0142224 0.0142224 -2170.2) (0.00454689 0.00454689 -1559.33) (-0.000881505 -0.000881505 -846.959) (-0.00249293 -0.00249293 -368.632) (-0.00212617 -0.00212617 -130.353) (-0.00401049 -0.00401049 -43.5543) (-0.00486578 -0.00486578 -92.931) (-0.0151513 -0.0151513 -538.001) (-0.0175664 -0.0175664 -1927.51) (0.00846854 0.00846854 -3706.06) (0.025784 0.025784 -4496.48)
1200          (0.0136708 0.0136708 -2125.51) (0.00456189 0.00456189 -1544.99) (-0.000653416 -0.000653416 -856.632) (-0.00236512 -0.00236512 -383.775) (-0.00217946 -0.00217946 -141.061) (-0.00433132 -0.00433132 -50.0491) (-0.00534047 -0.00534047 -107.834) (-0.0153394 -0.0153394 -583.463) (-0.016215 -0.016215 -1969.87) (0.0086658 0.0086658 -3661.55) (0.0246764 0.0246764 -4402.07)
1250          (0.0131564 0.0131564 -2083.48) (0.00456203 0.00456203 -1530.76) (-0.00044558 -0.00044558 -865.125) (-0.00223773 -0.00223773 -398.138) (-0.00222458 -0.00222458 -151.784) (-0.00462789 -0.00462789 -57.046) (-0.00579908 -0.00579908 -123.804) (-0.0154324 -0.0154324 -628.277) (-0.0149414 -0.0149414 -2007.2) (0.00879702 0.00879702 -3617.79) (0.0236504 0.0236504 -4313.37)
1300          (0.0126734 0.0126734 -2043.84) (0.004549 0.004549 -1516.69) (-0.000256513 -0.000256513 -872.562) (-0.00211201 -0.00211201 -411.758) (-0.00226221 -0.00226221 -162.501) (-0.00489727 -0.00489727 -64.5386) (-0.00623561 -0.00623561 -140.772) (-0.015437 -0.015437 -672.238) (-0.0137447 -0.0137447 -2039.98) (0.00887232 0.00887232 -3574.88) (0.0226916 0.0226916 -4229.83)
1350          (0.0122169 0.0122169 -2006.38) (0.00452411 0.00452411 -1502.8) (-8.49079e-05 -8.49079e-05 -879.055) (-0.00198901 -0.00198901 -424.672) (-0.00229307 -0.00229307 -173.198) (-0.00513717 -0.00513717 -72.5186) (-0.00664467 -0.00664467 -158.665) (-0.0153607 -0.0153607 -715.177) (-0.0126226 -0.0126226 -2068.66) (0.00889957 0.00889957 -3532.89) (0.0217882 0.0217882 -4150.95)
1400          (0.011783 0.011783 -1970.91) (0.00448846 0.00448846 -1489.13) (7.03812e-05 7.03812e-05 -884.703) (-0.00186963 -0.00186963 -436.918) (-0.00231784 -0.00231784 -183.864) (-0.00534572 -0.00534572 -80.9753) (-0.0070216 -0.0070216 -177.403) (-0.0152109 -0.0152109 -756.961) (-0.0115727 -0.0115727 -2093.66) (0.00888513 0.00888513 -3491.87) (0.0209311 0.0209311 -4076.33)
1450          (0.0113686 0.0113686 -1937.26) (0.004443 0.004443 -1475.68) (0.00021037 0.00021037 -889.595) (-0.00175465 -0.00175465 -448.535) (-0.00233722 -0.00233722 -194.491) (-0.0055212 -0.0055212 -89.8958) (-0.00736252 -0.00736252 -196.904) (-0.0149957 -0.0149957 -797.487) (-0.0105922 -0.0105922 -2115.35) (0.00883438 0.00883438 -3451.83) (0.0201131 0.0201131 -4005.6)
1500          (0.0109714 0.0109714 -1905.27) (0.00438872 0.00438872 -1462.47) (0.000335977 0.000335977 -893.808) (-0.00164478 -0.00164478 -459.562) (-0.00235187 -0.00235187 -205.077) (-0.00566197 -0.00566197 -99.2658) (-0.00766447 -0.00766447 -217.086) (-0.0147234 -0.0147234 -836.682) (-0.0096786 -0.00967861 -2134.06) (0.00875212 0.00875212 -3412.8) (0.0193294 0.0193294 -3938.43)
1550          (0.0105897 0.0105897 -1874.82) (0.00432664 0.00432664 -1449.5) (0.000448061 0.000448061 -897.414) (-0.00154069 -0.00154069 -470.038) (-0.00236241 -0.00236241 -215.621) (-0.00576631 -0.00576631 -109.069) (-0.00792541 -0.00792541 -237.864) (-0.0144028 -0.0144028 -874.492) (-0.0088293 -0.0088293 -2150.11) (0.0086429 0.0086429 -3374.76) (0.0185768 0.0185768 -3874.52)
1600          (0.0102228 0.0102228 -1845.79) (0.00425792 0.00425792 -1436.78) (0.000547459 0.000547459 -900.475) (-0.00144299 -0.00144299 -479.999) (-0.00236942 -0.00236942 -226.122) (-0.00583254 -0.00583254 -119.287) (-0.00814444 -0.00814444 -259.157) (-0.0140428 -0.0140428 -910.887) (-0.008042 -0.008042 -2163.77) (0.00851133 0.00851133 -3337.71) (0.0178543 0.0178543 -3813.64)
1650          (0.00987039 0.00987039 -1818.06) (0.00418396 0.00418396 -1424.32) (0.000635019 0.000635019 -903.048) (-0.00135226 -0.00135226 -489.482) (-0.00237343 -0.00237343 -236.584) (-0.00585908 -0.00585908 -129.902) (-0.00832181 -0.00832181 -280.884) (-0.0136528 -0.0136528 -945.853) (-0.00731461 -0.00731461 -2175.28) (0.00836231 0.00836231 -3301.63) (0.0171624 0.0171624 -3755.53)
1700          (0.00953309 0.00953309 -1791.55) (0.00410642 0.00410642 -1412.11) (0.00071164 0.00071164 -905.183) (-0.00126902 -0.00126902 -498.522) (-0.00237493 -0.00237493 -247.008) (-0.00584485 -0.00584485 -140.894) (-0.0084592 -0.0084592 -302.97) (-0.0132427 -0.0132427 -979.388) (-0.00664518 -0.00664518 -2184.87) (0.00820125 0.00820125 -3266.51) (0.0165035 0.0165035 -3700.01)
1750          (0.0092123 0.0092123 -1766.16) (0.00402735 0.00402735 -1400.15) (0.000778309 0.000778309 -906.926) (-0.00119374 -0.00119374 -507.151) (-0.00237439 -0.00237439 -257.4) (-0.00578968 -0.00578968 -152.24) (-0.00855985 -0.00855985 -325.339) (-0.0128227 -0.0128227 -1011.51) (-0.00603189 -0.00603189 -2192.72) (0.00803432 0.00803432 -3232.31) (0.0158818 0.0158818 -3646.88)
1800          (0.00891019 0.00891019 -1741.83) (0.00394917 0.00394917 -1388.45) (0.00083613 0.00083613 -908.318) (-0.00112677 -0.00112677 -515.401) (-0.00237227 -0.00237227 -267.763) (-0.0056951 -0.0056951 -163.921) (-0.0086288 -0.0086288 -347.922) (-0.0124033 -0.0124033 -1042.23) (-0.00547295 -0.00547295 -2199.03) (0.00786847 0.00786847 -3199.03) (0.0153034 0.0153034 -3595.97)
1850          (0.00862954 0.00862954 -1718.48) (0.00387463 0.00387463 -1376.99) (0.000886347 0.000886347 -909.397) (-0.00106824 -0.00106824 -523.303) (-0.00236902 -0.00236902 -278.101) (-0.0055652 -0.0055652 -175.913) (-0.00867304 -0.00867304 -370.653) (-0.0119952 -0.0119952 -1071.58) (-0.00496643 -0.00496643 -2203.94) (0.00771136 0.00771136 -3166.63) (0.0147756 0.0147756 -3547.15)
1900          (0.00837328 0.00837328 -1696.04) (0.00380662 0.00380662 -1365.78) (0.000930331 0.000930331 -910.197) (-0.00101801 -0.00101801 -530.885) (-0.00236515 -0.00236515 -288.419) (-0.00540755 -0.00540755 -188.195) (-0.00870137 -0.00870137 -393.471) (-0.0116085 -0.0116085 -1099.59) (-0.00450999 -0.00450999 -2207.61) (0.00757087 0.00757087 -3135.08) (0.0143061 0.0143061 -3500.26)
1950          (0.00814372 0.00814372 -1674.47) (0.00374776 0.00374776 -1354.81) (0.000969517 0.000969517 -910.748) (-0.00097554 -0.00097554 -538.173) (-0.0023613 -0.0023613 -298.721) (-0.00523367 -0.00523367 -200.743) (-0.00872377 -0.00872377 -416.319) (-0.0112518 -0.0112518 -1126.31) (-0.00410057 -0.00410057 -2210.16) (0.00745415 0.00745415 -3104.36) (0.013901 0.013901 -3455.19)
2000          (0.00794162 0.00794162 -1653.7) (0.00369987 0.00369987 -1344.08) (0.00100527 0.00100527 -911.078) (-0.000939892 -0.000939892 -545.193) (-0.0023583 -0.0023583 -309.009) (-0.00505843 -0.00505843 -213.536) (-0.0087502 -0.0087502 -439.144) (-0.010931 -0.010931 -1151.77) (-0.00373417 -0.00373417 -2211.7) (0.00736638 0.00736638 -3074.45) (0.0135629 0.0135629 -3411.82)
2050          (0.00776537 0.00776537 -1633.68) (0.00366345 0.00366345 -1333.59) (0.00103871 0.00103871 -911.213) (-0.000909893 -0.000909893 -551.969) (-0.00235722 -0.00235722 -319.288) (-0.00489807 -0.00489807 -226.552) (-0.00878881 -0.00878881 -461.9) (-0.0106479 -0.0106479 -1176.03) (-0.00340583 -0.00340583 -2212.34) (0.00730951 0.00730951 -3045.31) (0.0132889 0.0132889 -3370.05)
2100          (0.00761093 0.00761093 -1614.38) (0.00363746 0.00363746 -1323.32) (0.00107051 0.00107051 -911.177) (-0.000884394 -0.000884394 -558.523) (-0.00235928 -0.00235927 -329.561) (-0.0047673 -0.0047673 -239.767) (-0.00884438 -0.00884438 -484.541) (-0.0104002 -0.0104002 -1199.11) (-0.00310996 -0.00310996 -2212.18) (0.00728167 0.00728167 -3016.92) (0.0130704 0.0130704 -3329.78)
2150          (0.00747252 0.00747252 -1595.76) (0.00361953 0.00361953 -1313.28) (0.00110088 0.00110088 -910.989) (-0.000862541 -0.000862541 -564.874) (-0.00236562 -0.00236562 -339.829) (-0.00467658 -0.00467658 -253.162) (-0.00891764 -0.00891764 -507.029) (-0.0101824 -0.0101824 -1221.08) (-0.00284095 -0.00284095 -2211.29) (0.00727766 0.00727766 -2989.26) (0.012895 0.012895 -3290.92)
2200          (0.00734376 0.00734376 -1577.76) (0.00360647 0.00360647 -1303.45) (0.00112957 0.00112957 -910.671) (-0.000843871 -0.000843871 -571.043) (-0.00237706 -0.00237706 -350.094) (-0.00463091 -0.00463091 -266.714) (-0.00900571 -0.00900571 -529.327) (-0.009987 -0.009987 -1241.97) (-0.00259378 -0.00259378 -2209.75) (0.00729018 0.00729018 -2962.3) (0.0127485 0.0127485 -3253.41)
2250          (-0.000481716 -0.000481716 -1560.41) (0.0023111 0.0023111 -1293.9) (3.54245e-05 3.54245e-05 -910.256) (0.000195873 0.000195873 -577.026) (0.000288977 0.000288977 -360.313) (0.00100562 0.00100562 -280.454) (0.000356309 0.000356309 -551.418) (0.000237042 0.000237042 -1261.85) (0.000151698 0.000151698 -2207.64) (-0.00064953 -0.00064953 -2936) (-0.00513298 -0.00513298 -3217.1)
2300          (0.00040602 0.00040602 -1543.63) (-0.00267987 -0.00267987 -1284.55) (-0.000925268 -0.000925268 -909.744) (0.000425224 0.000425224 -582.862) (0.000674706 0.000674706 -370.53) (-0.000109888 -0.000109888 -294.252) (-0.00020633 -0.00020633 -573.253) (0.000297506 0.000297506 -1280.75) (0.00192254 0.00192254 -2205.01) (0.0065735 0.0065735 -2910.36) (0.00815314 0.00815314 -3182.03)
2350          (-0.000707662 -0.000707662 -1527.39) (0.00154095 0.00154095 -1275.41) (0.00154634 0.00154634 -909.15) (-7.79118e-05 -7.79118e-05 -588.566) (1.7896e-05 1.7896e-05 -380.749) (0.000955111 0.000955111 -308.146) (0.000154963 0.000154963 -594.814) (-0.000782508 -0.000782508 -1298.7) (-0.003725 -0.003725 -2201.91) (-0.00812536 -0.00812536 -2885.35) (-0.00361819 -0.00361819 -3148.08)
2400          (-0.00258738 -0.00258738 -1511.75) (0.000630109 0.000630109 -1266.52) (0.00203639 0.00203639 -908.491) (0.000185755 0.000185755 -594.118) (8.04168e-05 8.04168e-05 -390.908) (0.00219809 0.00219809 -322.149) (3.86952e-05 3.86952e-05 -616.081) (-0.0020038 -0.0020038 -1315.77) (-0.00655791 -0.00655791 -2198.4) (-0.0111148 -0.0111148 -2860.95) (-0.00514531 -0.00514531 -3115.2)
2450          (0.00105225 0.00105225 -1496.43) (0.00193478 0.00193478 -1257.73) (0.00228322 0.00228322 -907.766) (-0.000850132 -0.000850132 -599.633) (-0.00106262 -0.00106262 -401.193) (0.00163285 0.00163285 -336.14) (-7.82592e-05 -7.82592e-05 -637.026) (-0.00277266 -0.00277266 -1331.96) (-0.00768298 -0.00768298 -2194.52) (-0.0113873 -0.0113873 -2837.15) (-0.00484602 -0.00484602 -3083.37)
2500          (0.00252967 0.00252967 -1481.75) (-0.000315183 -0.000315183 -1249.24) (-0.00298179 -0.00298179 -907.009) (-0.00192842 -0.00192842 -604.982) (0.000490001 0.000490001 -411.338) (-0.00110835 -0.00110835 -350.263) (-0.00185611 -0.00185611 -657.648) (2.70606e-05 2.70606e-05 -1347.36) (0.00549306 0.00549306 -2190.32) (0.0101644 0.0101644 -2813.92) (0.00773778 0.00773778 -3052.48)
2550          (0.0025942 0.0025942 -1467.46) (0.00082544 0.00082544 -1240.92) (-0.00014696 -0.00014696 -906.219) (-0.000815998 -0.000815998 -610.266) (-0.00112189 -0.00112189 -421.509) (-0.00326524 -0.00326524 -364.349) (-0.0035333 -0.0035333 -677.926) (-0.00340637 -0.00340637 -1361.98) (-0.000928261 -0.000928261 -2185.82) (0.00208 0.00208 -2791.23) (0.00504821 0.00504821 -3022.5)
2600          (0.002135 0.002135 -1453.57) (0.000655521 0.000655521 -1232.78) (7.22701e-05 7.22701e-05 -905.406) (-0.000410194 -0.000410194 -615.485) (-0.000735726 -0.000735726 -431.69) (-0.00483683 -0.00483683 -378.455) (-0.00488653 -0.00488653 -697.849) (-0.00427553 -0.00427553 -1375.87) (-0.000583919 -0.000583919 -2181.07) (0.00347478 0.00347478 -2769.07) (0.00799532 0.00799532 -2993.41)
2650          (0.000148929 0.000148929 -1440.09) (-8.55409e-05 -8.55409e-05 -1224.82) (-0.000248435 -0.000248435 -904.579) (-0.000294003 -0.000294003 -620.636) (-0.000213194 -0.000213194 -441.858) (-0.00156472 -0.00156472 -392.554) (-0.00154166 -0.00154166 -717.409) (-0.00142404 -0.00142404 -1389.06) (-0.000351886 -0.000351886 -2176.1) (0.000890049 0.000890049 -2747.43) (0.00172156 0.00172156 -2965.16)
2700          (-0.00173233 -0.00173233 -1426.97) (-0.00111539 -0.00111539 -1217.02) (-0.000614982 -0.000614982 -903.739) (3.49346e-06 3.49345e-06 -625.746) (0.000735532 0.000735532 -452.052) (0.00121016 0.00121016 -406.641) (0.00223996 0.00223996 -736.591) (0.0020842 0.0020842 -1401.57) (0.000666184 0.000666184 -2170.92) (-0.00106435 -0.00106435 -2726.3) (-0.00176768 -0.00176768 -2937.71)
2750          (0.00188902 0.00188902 -1414.27) (0.000590464 0.000590464 -1209.43) (6.57171e-05 6.57171e-05 -902.9) (-0.000386282 -0.000386282 -630.785) (-0.000752993 -0.000752993 -462.19) (-0.00530463 -0.00530463 -420.671) (-0.00459124 -0.00459124 -755.396) (-0.00375173 -0.00375173 -1413.45) (-0.000364722 -0.000364722 -2165.57) (0.00318405 0.00318405 -2705.65) (0.00719508 0.00719508 -2911.03)
2800          (-9.97494e-05 -9.97494e-05 -1401.9) (-0.000168302 -0.000168302 -1202) (-0.000269521 -0.000269521 -902.063) (-0.000261818 -0.000261818 -635.795) (-0.000123326 -0.000123326 -472.344) (-0.00132814 -0.00132814 -434.67) (-0.00108876 -0.00108876 -773.818) (-0.000965981 -0.000965981 -1424.73) (-0.000239561 -0.000239561 -2160.07) (0.000578367 0.000578367 -2685.46) (0.000929268 0.000929268 -2885.08)
2850          (-0.00136664 -0.00136664 -1389.83) (-0.00092368 -0.00092368 -1194.71) (-0.000527431 -0.000527431 -901.234) (3.34041e-06 3.3404e-06 -640.784) (0.000664244 0.000664244 -482.512) (0.000648384 0.000648384 -448.616) (0.00171906 0.00171906 -791.851) (0.00155209 0.00155209 -1435.43) (0.000514063 0.000514063 -2154.43) (-0.00073361 -0.00073361 -2665.74) (-0.00111109 -0.00111109 -2859.85)
2900          (0.00384929 0.00384929 -1378.16) (0.00126537 0.00126537 -1187.63) (-3.93478e-05 -3.93478e-05 -900.431) (-0.00121604 -0.00121604 -645.711) (-0.00173107 -0.00173107 -492.593) (-0.00620109 -0.00620109 -462.476) (-0.00398327 -0.00398327 -809.501) (-0.00326833 -0.00326833 -1445.59) (-0.000539176 -0.000539176 -2148.68) (0.00238871 0.00238871 -2646.45) (0.00654597 0.00654597 -2835.27)
2950          (0.0035676 0.0035676 -1366.78) (0.0012429 0.0012429 -1180.71) (1.86896e-05 1.86896e-05 -899.651) (-0.00108836 -0.00108836 -650.621) (-0.00135292 -0.00135292 -502.667) (-0.00730673 -0.00730673 -476.268) (-0.00401922 -0.00401922 -826.767) (-0.0032184 -0.0032184 -1455.23) (-0.000482877 -0.000482877 -2142.84) (0.00238021 0.00238021 -2627.59) (0.00640816 0.00640816 -2811.33)
3000          (0.00328365 0.00328365 -1355.69) (0.00118034 0.00118034 -1173.94) (8.65186e-05 8.65186e-05 -898.894) (-0.000870146 -0.000870146 -655.511) (-0.00120856 -0.00120856 -512.724) (-0.00790881 -0.00790881 -489.967) (-0.00392695 -0.00392695 -843.646) (-0.00308323 -0.00308323 -1464.37) (-0.000427665 -0.000427665 -2136.92) (0.00231415 0.00231415 -2609.15) (0.00618827 0.00618827 -2788.02)
3050          (0.00298771 0.00298771 -1344.9) (0.00110107 0.00110107 -1167.33) (0.000176937 0.000176937 -898.167) (-0.000646536 -0.000646536 -660.385) (-0.00114649 -0.00114649 -522.757) (-0.00833613 -0.00833613 -503.566) (-0.00382195 -0.00382195 -860.139) (-0.00294769 -0.00294769 -1473.05) (-0.000376289 -0.000376289 -2130.93) (0.00224925 0.00224925 -2591.1) (0.00597689 0.00597689 -2765.31)
3100          (0.00268756 0.00268756 -1334.38) (0.00102013 0.00102013 -1160.87) (0.000278297 0.000278297 -897.472) (-0.000446151 -0.000446151 -665.247) (-0.00111608 -0.00111608 -532.765) (-0.00865757 -0.00865757 -517.057) (-0.0037161 -0.0037161 -876.25) (-0.00281758 -0.00281758 -1481.28) (-0.000328745 -0.000328745 -2124.89) (0.00218638 0.00218638 -2573.45) (0.00577413 0.00577413 -2743.17)
3150          (0.00239629 0.00239629 -1324.14) (0.000944618 0.000944618 -1154.56) (0.000377753 0.000377753 -896.813) (-0.000276288 -0.000276288 -670.098) (-0.00109818 -0.00109818 -542.742) (-0.008899 -0.008899 -530.433) (-0.00361129 -0.00361129 -891.981) (-0.00269336 -0.00269336 -1489.09) (-0.000284881 -0.000284881 -2118.8) (0.0021255 0.0021255 -2556.18) (0.00557974 0.00557974 -2721.58)
3200          (0.00212636 0.00212636 -1314.15) (0.000877094 0.000877094 -1148.39) (0.000466705 0.000466705 -896.192) (-0.000137599 -0.000137599 -674.942) (-0.0010847 -0.0010847 -552.685) (-0.00907597 -0.00907597 -543.687) (-0.00350815 -0.00350815 -907.337) (-0.00257506 -0.00257506 -1496.49) (-0.000244548 -0.000244548 -2112.68) (0.00206652 0.00206652 -2539.27) (0.00539354 0.00539354 -2700.52)
3250          (0.00188623 0.00188623 -1304.41) (0.000818084 0.000818084 -1142.37) (0.000540709 0.000540709 -895.613) (-2.80624e-05 -2.80624e-05 -679.781) (-0.00107212 -0.00107212 -562.59) (-0.0092009 -0.0092009 -556.813) (-0.00340708 -0.00340708 -922.32) (-0.00246261 -0.00246261 -1503.51) (-0.000207586 -0.000207586 -2106.54) (0.00200944 0.00200944 -2522.73) (0.0052154 0.0052154 -2679.98)
3300          (0.00167984 0.00167984 -1294.91) (0.00076723 0.00076723 -1136.49) (0.000598353 0.000598353 -895.078) (5.5557e-05 5.55569e-05 -684.615) (-0.00105901 -0.00105901 -572.454) (-0.00928447 -0.00928447 -569.805) (-0.00330841 -0.00330841 -936.938) (-0.00235591 -0.00235591 -1510.16) (-0.000173802 -0.000173802 -2100.38) (0.00195422 0.00195422 -2506.53) (0.00504514 0.00504514 -2659.93)
3350          (0.00150747 0.00150747 -1285.65) (0.000723805 0.000723805 -1130.76) (0.000640143 0.000640143 -894.59) (0.000116939 0.000116939 -689.447) (-0.0010449 -0.0010449 -582.273) (-0.00933568 -0.00933568 -582.658) (-0.00321236 -0.00321236 -951.194) (-0.00225479 -0.00225479 -1516.47) (-0.000142984 -0.000142984 -2094.22) (0.00190086 0.00190086 -2490.67) (0.0048826 0.0048826 -2640.36)
3400          (0.00136703 0.00136703 -1276.62) (0.000686945 0.000686945 -1125.16) (0.000667629 0.000667629 -894.149) (0.000159747 0.000159747 -694.278) (-0.00102977 -0.00102977 -592.043) (-0.00936187 -0.00936187 -595.367) (-0.0031191 -0.0031191 -965.094) (-0.00215903 -0.00215903 -1522.44) (-0.000114903 -0.000114903 -2088.06) (0.00184935 0.00184935 -2475.14) (0.00472752 0.00472752 -2621.24)
3450          (0.00125512 0.00125512 -1267.8) (0.000655761 0.000655761 -1119.69) (0.000682808 0.000682808 -893.758) (0.000187363 0.000187363 -699.108) (-0.00101376 -0.00101376 -601.763) (-0.00936886 -0.00936886 -607.927) (-0.00302871 -0.00302871 -978.645) (-0.0020684 -0.0020684 -1528.11) (-8.93289e-05 -8.93289e-05 -2081.9) (0.0017997 0.0017997 -2459.93) (0.00457965 0.00457965 -2602.57)
3500          (0.00116784 0.00116784 -1259.2) (0.000629406 0.000629406 -1114.36) (0.000687758 0.000687758 -893.417) (0.000202768 0.000202768 -703.938) (-0.000997106 -0.000997106 -611.428) (-0.00936113 -0.00936113 -620.335) (-0.00294126 -0.00294126 -991.853) (-0.00198263 -0.00198263 -1533.47) (-6.60389e-05 -6.60389e-05 -2075.76) (0.00175187 0.00175187 -2445.03) (0.00443871 0.00443871 -2584.33)
3550          (0.00110128 0.00110128 -1250.81) (0.000607111 0.000607111 -1109.17) (0.000684447 0.000684447 -893.129) (0.000208513 0.000208513 -708.768) (-0.000980029 -0.000980029 -621.036) (-0.00934211 -0.00934211 -632.588) (-0.00285674 -0.00285674 -1004.72) (-0.00190149 -0.00190149 -1538.55) (-4.4822e-05 -4.4822e-05 -2069.63) (0.00170585 0.00170585 -2430.43) (0.0043044 0.0043044 -2566.51)
3600          (0.0010518 0.0010518 -1242.62) (0.000588196 0.000588196 -1104.1) (0.000674631 0.000674631 -892.893) (0.000206737 0.000206737 -713.598) (-0.000962734 -0.000962734 -630.583) (-0.00931443 -0.00931443 -644.682) (-0.00277516 -0.00277516 -1017.26) (-0.0018247 -0.0018247 -1543.35) (-2.54829e-05 -2.54829e-05 -2063.53) (0.00166161 0.00166161 -2416.12) (0.00417644 0.00417644 -2549.08)
3650          (0.00101615 0.00101615 -1234.63) (0.000572076 0.000572076 -1099.16) (0.000659835 0.000659835 -892.712) (0.000199206 0.000199206 -718.429) (-0.000945409 -0.000945409 -640.068) (-0.0092801 -0.0092801 -656.616) (-0.0026965 -0.0026965 -1029.48) (-0.00175204 -0.00175204 -1547.9) (-7.84304e-06 -7.84304e-06 -2057.45) (0.00161913 0.00161913 -2402.1) (0.00405455 0.00405455 -2532.04)
3700          (0.000991516 0.000991516 -1226.83) (0.000558257 0.000558257 -1094.35) (0.000641346 0.000641346 -892.584) (0.000187362 0.000187362 -723.26) (-0.000928213 -0.000928213 -649.487) (-0.0092407 -0.0092407 -668.386) (-0.00262071 -0.00262071 -1041.38) (-0.00168327 -0.00168327 -1552.2) (8.2593e-06 8.25932e-06 -2051.4) (0.00157836 0.00157836 -2388.36) (0.00393844 0.00393844 -2515.38)
3750          (0.000975534 0.000975534 -1219.21) (0.000546329 0.000546329 -1089.66) (0.000620234 0.000620234 -892.511) (0.000172373 0.000172373 -728.091) (-0.000911291 -0.000911291 -658.838) (-0.00919747 -0.00919747 -679.992) (-0.00254776 -0.00254776 -1052.96) (-0.00161818 -0.00161818 -1556.27) (2.29702e-05 2.29702e-05 -2045.39) (0.00153927 0.00153927 -2374.89) (0.00382788 0.00382788 -2499.08)