# Probe 0 (0.0015 0.0015 0)
# Probe 1 (0.0015 0.0015 0.01)
# Probe 2 (0.0015 0.0015 0.02)
# Probe 3 (0.0015 0.0015 0.03)
# Probe 4 (0.0015 0.0015 0.04)
# Probe 5 (0.0015 0.0015 0.05)
# Probe 6 (0.0015 0.0015 0.06)
# Probe 7 (0.0015 0.0015 0.07)
# Probe 8 (0.0015 0.0015 0.08)
# Probe 9 (0.0015 0.0015 0.09)
# Probe 10 (0.0015 0.0015 0.1)
# Time        0             1             2             3             4             5             6             7             8             9             10           
50            (-2.89486e-11 1.94137e-11 -4.5557e-12) (-4.85789e-12 -1.65179e-12 -6.32562e-10) (9.60496e-12 2.79698e-12 -1.33619e-09) (-1.96735e-11 -4.38832e-11 -1.81513e-09) (4.8803e-11 5.5279e-11 -2.63347e-09) (-1.68947e-12 -6.1066e-11 -3.55574e-09) (4.81161e-13 -1.63795e-11 -3.06595e-09) (-1.42368e-11 2.60275e-11 -2.78411e-09) (8.6262e-12 1.67041e-12 -2.41482e-09) (-1.31046e-11 8.36978e-12 -2.14754e-09) (-1.40578e-11 -7.29258e-12 -2.02969e-09)
100           (7.62388e-12 -8.83504e-12 1.87602e-11) (-5.85784e-13 1.11688e-12 -5.82532e-10) (4.24262e-11 1.33008e-11 -1.32184e-09) (-1.37429e-11 1.12297e-11 -2.0051e-09) (-3.80089e-11 -2.21836e-11 -2.51023e-09) (-1.09572e-11 -8.15237e-11 -3.70642e-09) (4.36433e-12 5.92428e-12 -3.31158e-09) (6.32916e-12 8.56985e-13 -2.98276e-09) (7.75518e-12 5.17702e-12 -2.70974e-09) (-4.30274e-13 -2.77927e-11 -2.31429e-09) (2.07563e-12 -1.1762e-11 -2.06338e-09)
150           (9.50639e-12 -2.01978e-11 4.24643e-11) (2.10924e-11 3.83354e-11 -6.19308e-10) (3.02177e-11 -3.22892e-14 -1.23946e-09) (2.88995e-11 -1.80657e-13 -1.91064e-09) (8.77587e-12 -9.22802e-13 -2.39916e-09) (-1.08139e-11 3.12802e-11 -3.52892e-09) (5.33209e-12 7.47616e-12 -3.55128e-09) (5.59881e-13 -1.4836e-11 -3.78827e-09) (2.47535e-12 2.22121e-11 -3.88486e-09) (1.43336e-13 1.30483e-11 -3.57667e-09) (2.05551e-11 -1.05361e-13 -3.37018e-09)
200           (1.10038e-11 1.15448e-11 3.77696e-13) (3.24279e-11 -5.51498e-11 -6.06743e-10) (-3.75153e-11 9.49684e-12 -1.28158e-09) (5.98975e-11 2.08113e-11 -2.10601e-09) (-1.84421e-12 1.83259e-12 -2.66123e-09) (8.65846e-12 6.94614e-12 -3.7622e-09) (-4.6176e-12 1.32982e-12 -3.69743e-09) (1.35799e-12 1.05675e-11 -4.06782e-09) (-4.78958e-12 -2.93349e-11 -4.08156e-09) (8.34099e-12 1.94942e-11 -3.84365e-09) (1.12376e-12 -5.89142e-12 -3.6806e-09)
250           (-3.30899e-12 -3.74198e-11 -1.27919e-12) (2.23097e-11 3.35856e-11 -5.00502e-10) (-2.42334e-11 -1.77318e-11 -1.31669e-09) (-2.54947e-12 -5.80995e-11 -1.99656e-09) (-1.01572e-11 -3.3004e-11 -2.59492e-09) (-4.51736e-13 -1.50505e-12 -3.51058e-09) (-1.74833e-12 -2.19771e-11 -3.652e-09) (1.2193e-12 -1.29138e-11 -3.92385e-09) (-6.81116e-12 -1.18902e-11 -4.27654e-09) (2.93923e-12 5.88424e-13 -4.21193e-09) (-1.46379e-11 1.58773e-11 -3.99643e-09)
300           (6.94131e-13 -1.43094e-11 1.96734e-11) (-1.31099e-11 -1.09101e-11 -6.67705e-10) (5.56679e-12 8.73106e-12 -1.32256e-09) (1.32858e-11 7.3213e-12 -1.92349e-09) (1.22869e-11 -4.46541e-12 -2.6921e-09) (-4.23393e-12 1.91544e-11 -3.78825e-09) (2.17518e-11 6.79408e-12 -3.78e-09) (7.36791e-12 -1.59418e-12 -4.16743e-09) (1.39774e-11 -1.75985e-12 -4.44706e-09) (-7.24262e-12 2.78584e-11 -4.79629e-09) (6.80667e-12 1.26214e-12 -5.09328e-09)
350           (-1.24189e-11 -1.30454e-12 -2.11127e-11) (-1.05511e-11 9.05956e-12 -5.1906e-10) (-1.28271e-11 -2.97748e-11 -1.20222e-09) (-5.1163e-11 -3.18071e-12 -1.90313e-09) (-9.5395e-12 -1.67934e-12 -2.47844e-09) (4.64432e-11 -2.11365e-11 -3.53939e-09) (-7.26766e-12 8.25961e-12 -3.57832e-09) (-7.4063e-12 6.8255e-12 -3.91336e-09) (6.64822e-12 -1.54758e-11 -4.25095e-09) (1.28741e-11 -1.2205e-12 -4.64372e-09) (-6.79947e-12 -6.84452e-12 -4.94844e-09)
400           (-1.775e-11 1.6832e-11 3.33533e-13) (-1.50854e-11 4.54991e-13 -6.4884e-10) (-6.03347e-11 4.06986e-11 -1.36291e-09) (2.62111e-11 -2.25888e-11 -2.11636e-09) (-5.29805e-11 -1.6974e-12 -2.89258e-09) (-8.37772e-12 1.0522e-11 -3.9841e-09) (3.49616e-11 -3.42062e-13 -3.88329e-09) (6.84358e-12 -5.59269e-12 -4.27313e-09) (2.29251e-12 -2.06227e-11 -4.5572e-09) (7.96007e-12 6.70268e-12 -4.87494e-09) (1.57688e-11 -6.97753e-12 -5.263e-09)
450           (-1.02028e-11 3.04046e-11 -3.9283e-11) (2.31885e-11 1.72051e-11 -6.04636e-10) (3.47162e-11 -2.1028e-11 -1.32415e-09) (-1.06791e-12 2.00681e-11 -1.88608e-09) (2.14476e-11 -3.17359e-11 -2.53549e-09) (-3.00704e-11 1.13304e-11 -3.57938e-09) (1.21982e-12 6.20941e-12 -3.69313e-09) (1.22561e-12 1.07725e-12 -4.00903e-09) (1.47544e-11 1.96862e-11 -4.35057e-09) (-6.42945e-12 -5.36508e-12 -4.64232e-09) (-8.6908e-12 1.06036e-12 -5.00154e-09)
500           (-4.02846e-11 -1.71262e-12 -9.57028e-13) (1.20517e-11 1.96747e-11 -5.99022e-10) (2.0721e-11 1.49436e-11 -1.24499e-09) (1.08193e-12 -3.74109e-11 -1.97072e-09) (-1.09354e-11 2.07088e-11 -2.68118e-09) (2.09952e-11 -1.29811e-11 -3.87972e-09) (-2.00802e-12 1.79371e-11 -3.99036e-09) (-1.99445e-11 -6.44316e-12 -4.32094e-09) (1.98289e-12 6.18437e-12 -4.69812e-09) (-8.24235e-12 -1.73788e-12 -4.62387e-09) (-1.10293e-12 -2.7932e-11 -4.50821e-09)
550           (-1.06296e-12 -5.99244e-11 -6.21547e-11) (2.90935e-11 3.61013e-12 -5.22465e-10) (5.22704e-11 3.78724e-11 -1.42165e-09) (1.11291e-11 3.40228e-11 -2.05574e-09) (-9.42493e-12 5.17687e-11 -2.82616e-09) (-1.95878e-11 1.05808e-11 -3.84262e-09) (-1.37644e-11 -1.89373e-11 -3.9357e-09) (2.60293e-11 -1.466e-11 -4.30041e-09) (7.59149e-12 -1.59767e-11 -4.67927e-09) (-1.56616e-12 -1.95463e-11 -4.38794e-09) (-1.53414e-11 -1.93991e-11 -4.18551e-09)
600           (1.1153e-11 -1.37999e-11 1.65576e-11) (-1.5441e-11 1.25617e-12 -4.96684e-10) (-1.45323e-11 5.78948e-13 -1.24239e-09) (-2.45355e-11 -8.07457e-12 -1.89491e-09) (-1.02554e-11 -2.99933e-11 -2.43514e-09) (-3.16063e-11 -3.01254e-12 -3.55597e-09) (-5.22055e-12 1.98244e-11 -3.59652e-09) (-1.41489e-11 -5.80027e-13 -3.95092e-09) (-1.91181e-11 -2.12267e-11 -4.00739e-09) (7.17333e-12 2.31408e-11 -3.7216e-09) (-7.09701e-12 2.13297e-12 -3.40376e-09)
650           (-5.0769e-11 -2.94007e-11 6.33531e-11) (-9.98095e-12 -1.44288e-13 -5.59552e-10) (-4.36957e-11 2.61429e-12 -1.16353e-09) (9.33999e-12 6.05682e-11 -1.83235e-09) (-2.71675e-11 2.18437e-11 -2.63663e-09) (-1.03943e-11 1.10995e-11 -3.79364e-09) (2.55926e-11 2.71815e-11 -3.71773e-09) (1.43931e-11 5.6391e-12 -4.19123e-09) (-8.91381e-12 1.35267e-11 -4.03889e-09) (7.32986e-12 -1.62351e-11 -3.64283e-09) (1.89656e-11 6.88336e-12 -3.49307e-09)
700           (4.11842e-11 -1.53868e-12 5.75931e-11) (2.91224e-11 2.10751e-11 -5.72186e-10) (1.07094e-11 9.51882e-12 -1.37588e-09) (-1.82951e-11 -2.99879e-11 -1.80702e-09) (1.09518e-11 -2.15704e-11 -2.2228e-09) (-2.95444e-11 7.22972e-12 -3.31838e-09) (2.00571e-11 -3.71608e-13 -3.40824e-09) (-6.95885e-12 1.4467e-11 -3.75651e-09) (-8.17343e-12 1.10718e-11 -4.14123e-09) (6.78774e-12 -2.43746e-11 -4.39712e-09) (1.35016e-11 -2.27869e-11 -4.78984e-09)
750           (2.41209e-11 -3.7096e-11 -9.46134e-12) (6.00191e-11 -2.11741e-11 -6.5215e-10) (2.39399e-11 1.36386e-11 -1.31476e-09) (1.07362e-11 8.69048e-12 -1.96287e-09) (1.76873e-12 -1.26568e-11 -2.37913e-09) (8.91669e-13 -5.02726e-11 -3.57652e-09) (-6.70657e-13 6.25428e-12 -3.55798e-09) (-1.40999e-11 -1.53247e-11 -3.97618e-09) (-1.5565e-11 5.48702e-12 -4.3436e-09) (1.37711e-13 -5.16126e-13 -3.98499e-09) (2.8136e-15 1.58565e-11 -3.82789e-09)
800           (-4.85495e-11 8.60914e-12 -6.06747e-12) (-1.6519e-11 6.26139e-11 -6.41964e-10) (-4.94128e-12 -8.13706e-12 -1.24275e-09) (2.35608e-11 2.06051e-11 -1.85082e-09) (-4.29906e-11 -1.34128e-11 -2.50014e-09) (-3.11785e-11 -9.77408e-12 -3.55539e-09) (-7.50317e-12 -5.77741e-12 -3.57513e-09) (-7.16246e-12 -3.02874e-12 -3.895e-09) (-1.43763e-11 8.87776e-12 -4.27016e-09) (1.79062e-13 -2.19634e-11 -4.17419e-09) (-7.10115e-12 5.38787e-12 -3.94422e-09)
850           (-8.99498e-12 6.13233e-13 -1.7843e-11) (2.27698e-11 -1.92171e-11 -5.73061e-10) (8.02313e-12 5.91318e-13 -1.1979e-09) (3.09163e-11 2.79505e-11 -1.88448e-09) (2.07828e-11 -1.9478e-11 -2.50386e-09) (-1.32167e-11 -1.72798e-12 -3.26134e-09) (2.83566e-11 3.71961e-13 -3.38737e-09) (-6.02135e-12 -7.08687e-12 -3.75443e-09) (-1.73737e-11 7.35055e-12 -4.16985e-09) (-1.96414e-14 -6.87947e-12 -3.91051e-09) (1.50583e-11 2.20978e-11 -3.74901e-09)
900           (1.72413e-11 -2.14467e-11 1.93546e-11) (-9.09137e-12 3.10105e-11 -2.49976e-10) (-1.08418e-12 8.57173e-12 3.207e-10) (1.07946e-11 -7.84393e-12 8.17834e-10) (-1.17915e-12 3.20706e-11 1.48487e-09) (-4.73039e-11 -2.09654e-11 2.08903e-09) (7.11961e-12 1.35455e-11 2.16838e-09) (1.6186e-11 -5.23104e-12 1.91918e-09) (-2.0944e-11 4.33716e-12 1.57902e-09) (2.08598e-11 -3.97105e-11 1.91127e-09) (2.10997e-12 -8.95583e-12 2.0416e-09)
950           (-2.01302e-11 -3.3344e-11 -1.57864e-11) (7.9537e-13 2.03791e-11 -3.99989e-10) (-1.68084e-11 7.89574e-12 1.74368e-10) (-2.01232e-11 2.29922e-11 8.0507e-10) (-1.20244e-11 1.99876e-11 1.33833e-09) (-3.90934e-11 1.18188e-11 1.74544e-09) (8.28327e-12 -1.14024e-11 1.95317e-09) (6.56732e-12 7.29604e-12 1.591e-09) (-3.25609e-12 4.9333e-12 1.44703e-09) (2.21619e-11 -2.4967e-12 1.72465e-09) (-1.60903e-11 9.9366e-12 1.8331e-09)
1000          (-2.26221e-12 -1.79282e-11 2.001e-12) (-4.25041e-11 -2.01722e-11 -3.38757e-10) (2.09741e-11 -8.98237e-12 2.26442e-10) (-2.1754e-11 -2.3298e-11 9.43368e-10) (5.05821e-11 2.75707e-11 1.38676e-09) (2.08506e-11 1.63409e-11 2.23867e-09) (-5.36914e-12 -1.47118e-11 2.47883e-09) (1.12277e-12 4.79647e-13 2.83738e-09) (-2.0563e-11 -5.64241e-12 3.17411e-09) (-2.68103e-11 3.90382e-11 3.53982e-09) (1.79041e-11 2.75892e-12 3.77846e-09)
1050          (-9.04947e-13 -1.78856e-11 3.45876e-12) (-4.06332e-11 7.66063e-12 -3.87494e-10) (3.01914e-11 -2.34386e-11 2.64553e-10) (-2.723e-11 1.06534e-11 8.00945e-10) (-3.14612e-11 1.7339e-12 1.47384e-09) (-2.57517e-11 -5.46757e-11 2.2585e-09) (1.81368e-11 -7.23631e-12 2.65045e-09) (-5.16212e-12 2.92841e-11 3.04427e-09) (1.24284e-11 2.91085e-13 3.36347e-09) (-5.61576e-12 -6.13581e-12 3.74233e-09) (-4.70847e-12 -1.34131e-11 3.92113e-09)
1100          (1.77182e-11 2.9326e-11 -5.66942e-11) (-3.40759e-11 6.6511e-12 -3.04689e-10) (9.39223e-12 -4.37135e-11 3.26137e-10) (1.16639e-11 -1.00144e-11 1.00341e-09) (9.73348e-12 4.16352e-11 1.40327e-09) (-6.86873e-13 4.01728e-11 2.31671e-09) (5.39458e-12 -1.47191e-11 2.52137e-09) (2.16798e-11 6.77543e-12 2.92794e-09) (-1.0152e-13 -4.85502e-12 3.2927e-09) (2.72633e-11 1.22353e-11 3.63896e-09) (-6.18334e-13 1.48822e-11 3.81733e-09)
1150          (-3.94683e-11 2.47894e-13 -1.15308e-12) (4.17746e-11 7.48418e-12 -4.04296e-10) (-8.29504e-12 1.52093e-12 2.99506e-10) (-2.33853e-11 1.86239e-11 9.85763e-10) (-3.2626e-11 1.7963e-13 1.50716e-09) (-2.15973e-11 -2.92742e-12 2.33706e-09) (2.07068e-11 -4.97977e-12 2.58483e-09) (-2.64743e-11 -1.90336e-11 2.88722e-09) (1.11693e-12 -2.23861e-12 3.1511e-09) (8.53389e-12 -1.28948e-11 3.4866e-09) (7.0263e-12 -2.03353e-11 3.69108e-09)
1200          (-3.04657e-11 -8.35573e-12 2.87104e-11) (1.02968e-11 -4.32814e-11 -3.82873e-10) (-1.79287e-11 5.30279e-11 2.44246e-10) (6.94538e-14 -1.71737e-11 9.06246e-10) (-1.77932e-12 -2.35304e-12 1.62938e-09) (-3.16899e-11 -3.5064e-11 2.53066e-09) (-2.02848e-11 6.09817e-13 2.72327e-09) (1.53418e-12 5.72412e-12 2.67991e-09) (-1.33519e-11 1.42353e-11 2.8416e-09) (-2.94995e-12 -4.93215e-12 3.25213e-09) (-1.27491e-11 7.122e-12 3.35852e-09)
1250          (-1.69099e-11 -2.26725e-11 1.71844e-11) (2.06096e-11 -8.77156e-12 -3.93728e-10) (-2.00673e-12 2.03978e-11 2.84628e-10) (-7.54327e-12 -8.30709e-12 9.63033e-10) (1.68673e-11 -4.6739e-12 1.50282e-09) (-1.1969e-11 8.37467e-12 2.13269e-09) (7.49404e-12 -5.71673e-13 2.29472e-09) (-7.01988e-12 9.29548e-12 1.98935e-09) (1.09855e-12 1.37917e-11 1.63254e-09) (-5.26333e-13 1.84306e-11 1.12689e-09) (1.43483e-11 1.33225e-12 7.68209e-10)
1300          (-2.35938e-12 -6.45176e-12 2.75299e-12) (-4.04679e-11 -4.42689e-11 -2.71058e-10) (1.62219e-12 -4.53513e-13 3.34074e-10) (2.13487e-11 1.99044e-11 8.92326e-10) (-3.69172e-11 -6.98435e-11 1.59561e-09) (1.3411e-11 -3.16342e-11 2.1661e-09) (1.61072e-12 -1.38997e-12 2.3112e-09) (2.42662e-12 3.17217e-12 2.0397e-09) (-1.28165e-11 -1.30868e-11 2.28951e-09) (-1.33299e-11 6.489e-12 2.61143e-09) (2.84688e-11 6.03967e-12 2.92157e-09)
1350          (8.61295e-12 -1.99115e-12 1.66302e-12) (-8.66171e-12 -2.71181e-11 -2.47272e-10) (4.48141e-12 1.01787e-11 3.87059e-10) (3.44841e-12 -8.60652e-12 1.03712e-09) (-5.95397e-12 -2.48429e-11 1.75525e-09) (-1.04463e-11 -1.06145e-11 2.38239e-09) (2.04611e-11 -4.89289e-12 2.461e-09) (-1.88692e-12 3.66587e-13 2.13313e-09) (2.3648e-11 -6.18825e-13 1.82218e-09) (5.43341e-12 8.19819e-12 1.59276e-09) (-7.28729e-12 3.31652e-13 1.59115e-09)
1400          (-1.26688e-11 2.78711e-11 -1.9843e-11) (2.10875e-12 1.09656e-11 -4.89769e-10) (-2.96359e-11 -1.50361e-12 2.19289e-10) (9.15298e-12 3.89253e-11 7.77826e-10) (-3.28629e-11 -1.88439e-12 1.544e-09) (-3.18635e-11 -1.76146e-11 2.04243e-09) (-6.62308e-12 6.89705e-12 2.34254e-09) (-3.36496e-11 -1.57591e-12 2.02519e-09) (1.24233e-11 -1.36031e-12 1.6647e-09) (-2.29189e-11 -6.32043e-12 1.31536e-09) (-2.07729e-11 -1.20451e-11 1.00253e-09)
1450          (1.92566e-11 -8.88356e-12 -1.81784e-11) (-1.58361e-11 -2.17947e-11 -3.23525e-10) (-3.0585e-11 3.18142e-11 1.22982e-10) (-1.22975e-11 -1.43948e-12 9.59862e-10) (3.80091e-13 1.27298e-12 1.6804e-09) (1.72786e-12 4.16014e-11 2.0435e-09) (-7.2419e-13 -7.14113e-12 2.01879e-09) (-1.52027e-11 -1.81021e-11 1.79335e-09) (-7.39668e-13 6.94183e-13 1.50382e-09) (-2.88243e-12 -9.72954e-13 1.15586e-09) (8.06777e-12 2.0916e-11 7.56179e-10)
1500          (1.88153e-11 2.12402e-11 -4.81926e-13) (4.32598e-13 -7.1284e-12 -3.4523e-10) (-2.11027e-12 7.24634e-12 3.13495e-10) (1.28472e-12 -1.93282e-11 8.58882e-10) (-1.32404e-12 -4.61589e-13 1.61184e-09) (-1.88445e-11 -9.20141e-13 1.94259e-09) (-1.97513e-11 -1.94129e-11 1.95104e-09) (1.34165e-11 5.33086e-12 1.58485e-09) (-5.39426e-12 2.13073e-11 1.24289e-09) (6.02067e-13 -4.56822e-13 9.01757e-10) (1.38558e-11 9.31329e-13 5.12224e-10)
1550          (7.0297e-13 -1.63357e-11 2.13401e-11) (-9.19639e-12 1.81289e-12 -3.18569e-10) (-1.00169e-11 3.06837e-11 5.35498e-10) (-1.08775e-11 1.89669e-11 1.07516e-09) (-8.77905e-12 -2.97223e-11 1.68156e-09) (5.93183e-12 1.02531e-11 2.27101e-09) (-1.88947e-12 2.05018e-13 2.4561e-09) (1.31541e-12 -1.44586e-12 2.10696e-09) (-6.7633e-12 -5.1708e-14 1.64666e-09) (5.79225e-12 -9.03974e-12 1.39139e-09) (6.86594e-12 -7.67319e-12 1.02789e-09)
1600          (2.96509e-11 -9.03215e-12 5.46573e-11) (-1.2655e-11 -1.38758e-11 -3.06282e-10) (1.43729e-11 -4.3222e-11 2.63461e-10) (-2.48016e-11 3.11739e-12 9.1631e-10) (1.86119e-11 -4.85853e-11 1.50192e-09) (1.13116e-11 1.69688e-11 1.98271e-09) (-7.90204e-12 -2.63209e-11 2.02092e-09) (1.6879e-11 1.45851e-11 1.74279e-09) (-8.54459e-12 -1.12053e-12 1.39094e-09) (5.2788e-12 1.87533e-11 9.89648e-10) (1.29747e-11 1.19024e-11 5.95996e-10)
1650          (-2.75137e-11 -3.68579e-11 -4.06238e-11) (7.25117e-12 -2.95876e-11 -5.94134e-10) (1.0872e-11 2.74593e-11 1.05541e-10) (4.192e-11 -1.73467e-11 6.12767e-10) (-2.03212e-11 -1.87852e-11 1.23737e-09) (-1.67548e-11 5.8118e-14 1.93274e-09) (1.84653e-11 -6.31795e-13 2.04836e-09) (2.74033e-11 1.47598e-11 1.72588e-09) (1.36586e-11 -8.0621e-12 1.31764e-09) (-8.15094e-13 -1.18029e-11 1.01468e-09) (-6.78595e-12 -6.24097e-12 6.08512e-10)
1700          (-1.85868e-11 -5.6963e-11 -1.58896e-11) (1.20113e-11 1.1652e-11 -4.4067e-10) (1.93041e-11 2.29037e-11 1.67415e-10) (-1.95883e-11 1.8797e-11 7.0673e-10) (-1.99813e-11 1.64605e-12 1.18524e-09) (3.70642e-12 -1.85401e-11 1.60407e-09) (2.71084e-13 2.06105e-11 1.73953e-09) (2.84253e-11 5.46715e-13 1.43134e-09) (7.17241e-12 6.53289e-14 1.11654e-09) (2.67234e-11 -8.07087e-12 6.43754e-10) (7.6386e-12 -5.20072e-12 3.01765e-10)
1750          (-7.53517e-12 1.29759e-11 -1.11407e-11) (-5.93371e-13 7.25796e-13 -4.88922e-10) (3.35575e-11 1.89022e-11 3.54926e-10) (-4.25915e-12 -1.86933e-11 1.19374e-09) (-3.05258e-11 3.75059e-11 1.80653e-09) (-1.88666e-11 1.96233e-11 2.26853e-09) (-1.28001e-11 1.93453e-11 2.41035e-09) (7.37328e-12 1.14856e-11 1.99269e-09) (-5.29081e-12 -3.86134e-12 1.60579e-09) (9.34719e-13 9.1705e-13 1.23388e-09) (1.72849e-13 -2.06751e-11 9.61977e-10)
1800          (-2.04709e-12 1.30441e-12 3.85668e-11) (-4.85696e-12 1.92929e-12 -2.46226e-10) (2.47589e-11 8.17768e-12 3.8931e-10) (1.35936e-13 7.07491e-12 1.05777e-09) (-4.18181e-11 3.88927e-11 1.81315e-09) (1.32036e-11 1.01203e-11 2.44763e-09) (-1.38849e-13 -1.30182e-11 2.54259e-09) (1.20676e-12 -1.24142e-11 2.12102e-09) (6.25037e-12 1.08483e-12 2.19444e-09) (1.61101e-12 -8.03123e-12 2.48487e-09) (-1.50523e-11 2.17097e-11 2.64892e-09)
1850          (-3.03111e-11 9.80245e-12 -6.24432e-12) (-1.8483e-11 6.06088e-11 -4.76799e-10) (-8.57375e-12 2.31113e-11 2.4756e-10) (2.18807e-11 -2.04543e-11 8.99189e-10) (3.07558e-11 8.61564e-12 1.6429e-09) (-7.34473e-13 1.13651e-11 2.04748e-09) (-2.54624e-12 1.89601e-12 2.08879e-09) (6.16762e-12 1.91759e-11 1.68224e-09) (1.47012e-11 -1.57844e-11 1.30767e-09) (-6.77253e-12 7.68609e-12 1.70567e-09) (1.9758e-14 7.21387e-12 1.9793e-09)
1900          (-3.49073e-11 2.68239e-11 3.84181e-11) (-9.77543e-12 1.20159e-11 -3.19483e-10) (1.12584e-11 -5.05336e-12 2.62291e-10) (2.05325e-11 -6.49564e-11 9.50678e-10) (-5.35497e-12 -1.84425e-11 1.61826e-09) (2.11681e-11 1.68856e-13 2.16119e-09) (1.82386e-11 1.39254e-11 2.30423e-09) (8.85467e-13 2.21387e-11 1.89873e-09) (-1.41613e-11 -1.3903e-12 1.59958e-09) (7.37638e-12 5.81205e-12 1.22289e-09) (1.69408e-14 -2.1436e-11 9.09562e-10)
1950          (-7.61055e-12 -9.36262e-12 6.06148e-12) (-1.90871e-11 4.03795e-11 -4.43348e-10) (2.90685e-11 -1.14114e-11 2.13743e-10) (-2.88309e-11 -6.78177e-12 9.907e-10) (9.93159e-12 -1.88884e-11 1.72584e-09) (-3.55749e-12 3.16286e-11 2.41027e-09) (1.26483e-11 -1.53888e-11 2.69694e-09) (8.55354e-13 1.03543e-12 3.00972e-09) (1.39076e-11 1.53802e-11 3.35551e-09) (-1.26639e-11 -2.51995e-12 3.65723e-09) (6.70047e-12 -9.9529e-13 3.85825e-09)
2000          (-1.49879e-11 -4.08039e-11 -5.85071e-11) (-3.34642e-11 3.8783e-11 -4.04632e-10) (-4.25465e-11 4.25066e-11 2.08194e-10) (1.05754e-11 -2.92728e-11 9.31199e-10) (-1.89718e-11 3.92224e-11 1.62673e-09) (1.89086e-11 5.10209e-11 2.58317e-09) (-1.99111e-11 1.30057e-11 2.84627e-09) (-3.43684e-11 3.23898e-11 3.1749e-09) (-6.02622e-12 -5.2092e-13 3.44706e-09) (-2.58627e-12 1.45953e-11 3.79412e-09) (7.4605e-12 6.96325e-12 3.92595e-09)
2050          (-1.70577e-12 2.08177e-11 -1.52544e-12) (-2.1986e-12 -2.05269e-11 -3.87713e-10) (-7.37728e-13 2.92553e-12 1.89494e-10) (-2.96772e-11 -1.2201e-12 1.0401e-09) (8.63416e-13 -1.84966e-11 1.54459e-09) (-3.18693e-11 1.22497e-12 2.44432e-09) (1.45027e-11 -2.36007e-11 2.63287e-09) (-6.87447e-12 -3.63177e-13 2.9697e-09) (1.25844e-11 -7.58601e-12 3.36843e-09) (1.27758e-14 2.12262e-11 3.76913e-09) (-1.37136e-11 2.84558e-11 3.94356e-09)
2100          (-2.85675e-11 -2.36026e-11 7.48201e-11) (-1.34169e-11 2.9863e-12 -2.81252e-10) (-4.27296e-11 -2.93569e-13 3.03675e-10) (1.48212e-13 1.84151e-11 1.00962e-09) (9.73159e-12 1.95531e-11 1.71279e-09) (-2.32067e-11 9.98656e-12 2.4536e-09) (3.94351e-11 2.04233e-11 2.72594e-09) (-7.46403e-12 -6.43511e-12 3.01461e-09) (-7.67766e-12 -1.61258e-11 3.39289e-09) (-2.73897e-11 2.89388e-11 3.75651e-09) (-2.9399e-13 -5.246e-12 3.81597e-09)
2150          (2.04557e-11 1.84316e-11 -5.89233e-11) (-1.09135e-11 1.49752e-12 -2.26099e-10) (-3.0924e-11 1.26377e-11 3.36033e-10) (1.00191e-11 1.05245e-11 7.97375e-10) (1.12314e-11 2.35288e-11 1.35171e-09) (-8.50864e-13 2.14867e-12 2.16636e-09) (-6.41726e-12 4.31656e-11 2.48262e-09) (-8.99728e-12 8.04801e-12 2.67309e-09) (2.70154e-11 7.8247e-12 2.8818e-09) (6.89272e-12 5.93118e-12 3.1128e-09) (-1.44831e-11 6.65122e-12 3.27786e-09)
2200          (-8.98567e-12 -6.04963e-12 -4.9059e-12) (-4.16612e-11 -4.32611e-12 -4.15251e-10) (-7.16866e-12 1.12812e-11 2.29677e-10) (1.02511e-11 -8.14061e-13 7.95297e-10) (-6.65488e-13 -8.57895e-12 1.45398e-09) (1.17546e-11 -6.0492e-13 2.44384e-09) (-1.41843e-11 1.62289e-13 2.58795e-09) (5.57624e-12 -2.19014e-11 2.97741e-09) (1.45604e-12 1.17641e-11 3.29221e-09) (-1.58188e-11 -6.75518e-12 3.62359e-09) (-1.31698e-11 -1.27708e-11 3.79074e-09)
2250          (1.97087e-11 -1.16066e-11 -4.24631e-11) (3.04291e-12 -2.02764e-11 -3.00568e-10) (-3.13945e-11 1.02965e-11 3.78731e-10) (-1.06403e-11 -1.11545e-11 8.41072e-10) (3.09341e-11 -2.99889e-11 1.44156e-09) (2.44549e-11 3.06625e-11 2.36831e-09) (1.32154e-11 -8.73951e-12 2.65574e-09) (-2.12598e-12 -6.29164e-12 3.02202e-09) (2.10943e-11 7.37364e-12 3.45855e-09) (-1.97702e-11 1.12494e-12 3.77699e-09) (9.77169e-12 1.11554e-12 3.93932e-09)
2300          (2.69442e-11 2.14351e-11 -1.29137e-12) (3.05065e-11 3.90782e-12 -2.59457e-10) (-3.08824e-11 -1.8325e-11 4.01152e-10) (4.62812e-12 8.51814e-12 9.95706e-10) (-2.80106e-11 2.76171e-11 1.7257e-09) (3.1643e-11 -4.12775e-11 2.20677e-09) (1.04149e-11 1.18873e-11 2.25901e-09) (-8.39888e-12 -7.42955e-12 1.88783e-09) (-1.39704e-11 -2.5128e-11 1.65687e-09) (-7.82095e-12 4.44889e-13 1.89595e-09) (-2.15284e-11 1.22331e-12 2.01367e-09)
2350          (-2.70625e-11 2.1401e-12 5.78358e-11) (1.40707e-11 -5.10767e-11 -5.50851e-10) (5.23606e-12 3.68199e-11 -2.0222e-11) (-1.95256e-11 3.12053e-11 5.90791e-10) (-2.21981e-11 4.38894e-12 1.41239e-09) (1.23519e-11 -3.63496e-12 2.08907e-09) (7.57007e-12 6.00872e-12 2.41869e-09) (-3.52962e-11 1.14909e-11 2.72646e-09) (5.79137e-13 -1.29661e-11 3.07228e-09) (-1.27316e-11 -1.36675e-11 3.448e-09) (-8.07049e-12 8.18586e-12 3.5704e-09)
2400          (9.78067e-12 9.01375e-12 1.17791e-10) (-1.00086e-11 -3.19005e-11 -2.50557e-10) (1.27463e-11 9.084e-12 4.63788e-10) (6.07832e-12 -3.94058e-12 1.14662e-09) (1.79727e-12 -1.06661e-11 1.57296e-09) (1.21673e-11 -4.23092e-11 2.50651e-09) (-1.60665e-12 6.60449e-12 2.83313e-09) (-2.1436e-11 -2.8348e-11 3.17733e-09) (-1.82091e-11 -7.29421e-12 3.52185e-09) (-2.12317e-11 -2.36867e-11 3.84871e-09) (-1.38098e-11 -7.31742e-12 4.0545e-09)
2450          (1.94614e-11 2.04534e-11 3.72875e-11) (-2.0589e-11 -9.06184e-12 -2.1579e-10) (2.29251e-11 -1.86639e-11 5.11948e-10) (-6.12543e-12 -1.57688e-11 1.07763e-09) (-1.19599e-11 -9.49829e-12 1.7321e-09) (7.08993e-11 4.10936e-12 2.5492e-09) (-1.15067e-11 -3.13411e-11 2.83067e-09) (1.75405e-11 -1.38926e-11 3.23798e-09) (-8.48808e-12 -5.49397e-13 3.64602e-09) (-2.71804e-13 2.03009e-11 3.97234e-09) (-2.36263e-11 4.86211e-12 4.10546e-09)
2500          (3.04231e-11 -3.73331e-11 1.48053e-12) (-3.64104e-11 3.99394e-11 -3.82175e-10) (1.40246e-11 1.2651e-11 2.05257e-10) (-7.11847e-13 -2.96242e-12 8.12858e-10) (-7.48263e-12 7.11396e-12 1.51137e-09) (-1.21886e-11 -1.06603e-11 2.38171e-09) (3.97969e-11 1.20833e-11 2.67713e-09) (-7.34531e-12 1.88425e-12 2.97104e-09) (2.80204e-11 1.25492e-12 3.37738e-09) (2.98191e-11 -1.29847e-11 3.76918e-09) (1.3755e-11 7.96753e-12 3.9374e-09)
2550          (-9.48266e-12 -9.59377e-12 -5.12541e-12) (8.40469e-12 1.13801e-11 -1.72489e-10) (-7.45984e-12 1.07883e-11 4.24293e-10) (-9.94514e-12 2.7098e-13 1.04071e-09) (-2.08575e-11 1.21532e-12 1.70223e-09) (-1.04988e-11 1.93947e-11 2.38641e-09) (-1.06856e-11 -6.69076e-12 2.55035e-09) (1.33099e-12 -6.21895e-12 2.86482e-09) (2.2034e-11 2.87143e-11 3.15952e-09) (9.36478e-13 -6.43485e-12 3.47238e-09) (2.25044e-12 -2.26655e-11 3.75561e-09)
2600          (-2.98712e-11 -1.89227e-12 -1.22106e-10) (-1.94628e-11 7.31319e-12 -2.0748e-10) (-5.48775e-12 -5.72312e-12 4.65092e-10) (-1.53529e-11 6.07953e-12 9.96004e-10) (4.02598e-11 1.15858e-11 1.6778e-09) (1.05678e-11 -8.97934e-12 2.53175e-09) (-2.93895e-11 6.75985e-12 2.7874e-09) (-3.92894e-12 -1.95917e-11 3.20059e-09) (1.03043e-11 1.30828e-11 3.56349e-09) (2.00253e-12 -1.60395e-11 3.82694e-09) (-1.60065e-11 1.43232e-11 3.91834e-09)
2650          (-1.22617e-11 -2.04619e-11 -1.6294e-11) (1.67073e-13 9.24654e-12 -4.15629e-10) (2.0566e-11 5.32732e-11 1.60051e-10) (2.6632e-13 -1.81076e-11 8.11204e-10) (2.13215e-11 7.73708e-12 1.46016e-09) (-1.83975e-11 4.02641e-11 2.23955e-09) (7.61218e-12 2.22723e-11 2.59677e-09) (-1.9675e-12 2.58894e-11 2.96504e-09) (1.33139e-11 3.05015e-13 3.34387e-09) (1.29084e-12 7.27527e-12 3.68515e-09) (-5.40523e-12 -1.4266e-11 3.89483e-09)
2700          (5.12636e-11 -3.62522e-11 9.78009e-11) (4.10058e-11 1.50932e-12 -2.41269e-10) (-1.5772e-11 -1.17018e-11 2.56882e-10) (2.65267e-11 -1.73035e-11 7.67983e-10) (2.08007e-11 3.40576e-12 1.29811e-09) (2.94432e-11 -3.20823e-11 2.12165e-09) (2.02015e-11 6.64587e-12 2.17311e-09) (-1.0486e-12 4.77006e-11 1.89066e-09) (-1.87665e-11 -3.27085e-11 1.54312e-09) (1.76569e-11 -5.32488e-12 1.32316e-09) (5.81222e-12 1.65938e-11 9.54461e-10)
2750          (-2.03375e-11 -4.04476e-11 -1.83987e-11) (-2.05641e-11 -1.97621e-11 -3.5944e-10) (1.011e-11 1.00789e-11 1.56746e-10) (-1.98648e-12 1.96146e-11 6.20467e-10) (1.91e-11 1.0464e-11 1.35368e-09) (6.74272e-12 9.07148e-12 2.07516e-09) (-2.58243e-11 -1.43486e-11 2.02737e-09) (1.89706e-11 1.46429e-12 1.61995e-09) (-9.27077e-12 -7.98181e-12 1.34672e-09) (-2.27068e-11 1.28325e-11 9.12929e-10) (2.25632e-11 -2.8009e-11 5.57446e-10)
2800          (5.95033e-12 2.24446e-12 2.3543e-11) (2.50047e-11 6.5536e-12 -2.92767e-10) (1.38356e-11 4.30626e-11 5.25755e-10) (8.8934e-12 1.046e-11 1.09085e-09) (-3.53895e-11 -9.00711e-12 1.74175e-09) (-1.03845e-11 -1.18348e-11 2.30948e-09) (5.76423e-12 1.27718e-11 2.38794e-09) (2.02851e-11 -8.36141e-12 1.94542e-09) (-5.3313e-12 3.26222e-13 1.66146e-09) (-2.66172e-11 2.20928e-11 1.36137e-09) (6.71874e-12 -1.31759e-11 9.12619e-10)
2850          (-2.01113e-11 -1.93612e-11 4.30934e-11) (-2.15636e-11 -1.83228e-12 -4.01872e-10) (9.97516e-12 -1.182e-11 2.52886e-10) (3.87182e-12 1.92446e-11 8.41468e-10) (-2.27954e-11 1.40885e-11 1.43923e-09) (1.49435e-12 1.80444e-11 1.93987e-09) (-1.3982e-11 -5.73597e-12 1.93475e-09) (2.22618e-11 1.24206e-11 1.6247e-09) (-1.17593e-12 -2.69809e-11 1.31915e-09) (-9.11771e-12 -8.96135e-12 9.56021e-10) (1.2104e-11 2.01641e-13 5.48008e-10)
2900          (-2.84725e-11 -8.05931e-12 -1.63247e-11) (1.06798e-11 1.11242e-11 -1.69288e-10) (1.55782e-12 2.1685e-11 3.63728e-10) (-6.40017e-12 -2.90223e-11 9.99369e-10) (-2.18675e-11 -3.10426e-11 1.70534e-09) (-2.05794e-11 -2.03373e-11 2.33373e-09) (-2.22075e-11 -7.15997e-12 2.40011e-09) (1.19292e-12 -5.76583e-12 2.03638e-09) (-1.30958e-11 -7.32216e-12 1.75222e-09) (-7.28518e-12 -5.37876e-12 1.42098e-09) (6.73643e-12 2.99052e-13 1.05494e-09)
2950          (2.10615e-11 -2.88933e-11 1.76709e-11) (-1.1842e-11 2.27491e-11 -2.94384e-10) (-1.12899e-11 -3.13959e-11 3.63591e-10) (-1.9661e-11 -1.4198e-12 1.03994e-09) (-2.26863e-11 5.87308e-13 1.71062e-09) (2.09938e-12 8.85545e-12 2.57137e-09) (1.45474e-11 -7.6046e-12 2.89247e-09) (6.77837e-12 8.14416e-12 3.2711e-09) (-1.4039e-11 1.19579e-11 3.66586e-09) (1.28481e-11 4.70366e-13 4.02695e-09) (7.7256e-12 -5.90703e-12 4.16855e-09)
3000          (-4.74134e-11 3.65239e-11 1.89725e-11) (-5.01666e-11 -4.3712e-11 -1.70696e-10) (-9.36028e-12 -9.86712e-13 5.2696e-10) (-2.07481e-11 1.87272e-11 1.23236e-09) (9.02351e-12 -1.17983e-11 1.83294e-09) (5.88489e-11 -4.18963e-12 2.72916e-09) (9.19752e-13 4.26401e-12 2.96028e-09) (-1.29048e-13 -1.00887e-11 3.40215e-09) (7.83248e-12 -7.25529e-12 3.79597e-09) (5.70293e-13 1.75685e-12 4.15148e-09) (1.63815e-11 5.19715e-13 4.34144e-09)
3050          (8.33811e-12 1.95468e-11 -5.73275e-11) (5.2565e-11 -4.41807e-11 -4.4621e-10) (7.77662e-12 2.1787e-12 7.33542e-11) (3.4679e-11 7.0501e-13 8.52656e-10) (1.11959e-11 -8.24505e-12 1.53167e-09) (-8.2039e-13 1.68427e-11 2.29132e-09) (7.24787e-12 -8.81882e-12 2.55845e-09) (8.13021e-12 1.97858e-11 2.91766e-09) (1.72537e-12 -1.99649e-11 3.24789e-09) (7.51667e-12 -6.94048e-12 3.70227e-09) (7.71535e-12 1.47853e-12 3.85745e-09)
3100          (7.43757e-13 -9.4283e-12 -3.36028e-12) (-3.19154e-12 -3.84487e-11 -3.26418e-10) (1.93721e-11 -1.00737e-11 1.59445e-10) (-3.88395e-12 8.03481e-12 7.50578e-10) (1.16194e-11 -2.16774e-11 1.38892e-09) (-4.39971e-11 3.13804e-11 2.132e-09) (2.76421e-11 1.40798e-11 2.44426e-09) (-1.98313e-11 -4.37882e-13 2.65637e-09) (-1.86347e-12 2.64468e-11 2.93999e-09) (1.80435e-11 2.24055e-11 3.21819e-09) (-2.31585e-11 -8.27318e-12 3.36826e-09)
3150          (1.05275e-11 -9.62697e-12 1.93796e-11) (-1.20444e-11 1.66353e-11 -2.99262e-10) (2.25775e-12 -1.14825e-11 2.22606e-10) (1.92965e-12 3.50004e-13 8.95058e-10) (-6.97865e-12 3.42514e-11 1.56461e-09) (-3.18807e-11 2.06255e-11 2.50544e-09) (-4.53334e-12 -1.28338e-11 2.71359e-09) (1.54164e-11 7.27042e-12 3.03806e-09) (6.65029e-12 2.70992e-12 3.33285e-09) (-2.51216e-12 -6.48412e-12 3.66026e-09) (1.4329e-11 -4.43382e-12 3.83941e-09)
3200          (1.05009e-11 3.77984e-11 2.21171e-12) (-2.14299e-13 1.78522e-11 -3.92761e-10) (-1.93153e-11 -2.66378e-12 1.29492e-10) (2.21382e-11 -2.15625e-11 7.39358e-10) (-2.23305e-11 3.08995e-11 1.5008e-09) (2.95386e-11 -9.9589e-12 2.38282e-09) (-1.98556e-12 1.37084e-11 2.62534e-09) (-5.84421e-12 -4.56195e-12 2.96644e-09) (-6.76872e-12 1.22507e-11 3.27186e-09) (4.29893e-13 -6.41405e-13 3.6809e-09) (-7.04517e-12 -7.19818e-12 3.87384e-09)
3250          (1.2279e-11 2.00791e-11 -2.64833e-11) (-4.14555e-12 8.09504e-12 -3.87329e-10) (-2.20896e-11 -4.45085e-11 3.40497e-10) (2.04116e-11 -4.29698e-11 1.00796e-09) (-1.88626e-13 -4.04872e-11 1.56219e-09) (-3.73562e-11 3.00152e-12 2.42862e-09) (1.36514e-11 5.85348e-12 2.64938e-09) (2.05372e-11 -1.34225e-11 2.95905e-09) (-2.16731e-11 9.1492e-15 3.33721e-09) (-7.75694e-13 -2.41996e-14 3.65064e-09) (5.29762e-12 -1.45626e-11 3.83782e-09)
3300          (1.28436e-11 -1.55148e-11 -3.94301e-11) (1.87459e-11 -6.97029e-11 -1.43441e-10) (8.62475e-12 1.01332e-11 3.70839e-10) (4.01718e-11 3.64919e-13 9.84391e-10) (3.51307e-12 -1.9003e-11 1.77722e-09) (-2.17872e-11 -2.87202e-11 2.46981e-09) (-1.59952e-11 -1.01973e-11 2.7491e-09) (9.76071e-12 1.33639e-11 3.08718e-09) (1.88112e-11 -1.38063e-11 3.34743e-09) (-2.77806e-11 -1.21579e-11 3.58944e-09) (-1.4944e-12 -6.4702e-12 3.84574e-09)