# Probe 0 (0.0015 0.0015 0)
# Probe 1 (0.0015 0.0015 0.002)
# Probe 2 (0.0015 0.0015 0.004)
# Probe 3 (0.0015 0.0015 0.006)
# Probe 4 (0.0015 0.0015 0.008)
# Probe 5 (0.0015 0.0015 0.01)
# Probe 6 (0.0015 0.0015 0.012)
# Probe 7 (0.0015 0.0015 0.014)
# Probe 8 (0.0015 0.0015 0.016)
# Probe 9 (0.0015 0.0015 0.018)
# Probe 10 (0.0015 0.0015 0.02)
# Time        0             1             2             3             4             5             6             7             8             9             10           
50            189092        169320        134051        106684        87692.3       75335.2       66993.2       60164.1       52740.9       42973.5       29502.1      
100           199524        184866        156776        131202        108988        90471.8       75301.5       62521.6       50884.9       39197.4       26587.7      
150           203614        191062        166509        143098        121275        101370        83507.7       67544.7       53074.6       39524         26310.5      
200           205698        194234        171610        149613        128505        108514        89801         72424.8       56316.8       41273.3       26979        
250           206926        196111        174667        153613        133117        113335        94401.5       76404.9       59373.7       43254.8       27892.2      
300           207721        197328        176667        156267        136241        116702        97747.6       79457.7       61877         45000.7       28748.8      
350           208267        198164        178047        158110        138435        119101        100180        81732.9       63799         46385.8       29447.3      
400           208652        198755        179022        159419        140001        120825        101944        83401         65227         47429.8       29980.6      
450           208927        199177        179720        160356        141125        122066        103218        84611.4       66268.7       48196.2       30374.3      
500           209124        199479        180221        161029        141932        122958        104135        85483.7       67020.9       48750.9       30660        
550           209266        199696        180580        161511        142510        123598        104792        86109.3       67560.6       49149.2       30865.2      
600           209367        199852        180837        161856        142924        124055        105262        86556.6       67946.5       49434         31012        
650           209439        199963        181021        162103        143220        124382        105598        86875.8       68221.9       49637.2       31116.8      
700           209491        200042        181152        162279        143430        124614        105836        87102.8       68417.5       49781.7       31191.2      
750           209527        200098        181245        162403        143580        124779        106006        87264.3       68556.8       49884.3       31244.2      
800           209553        200138        181310        162491        143686        124896        106126        87377.9       68655         49956.6       31281.5      
850           209572        200166        181357        162554        143760        124979        106211        87459         68724.7       50008.2       31308        
900           209585        200186        181390        162598        143813        125037        106271        87516         68773.9       50044.5       31326.8      
950           209594        200199        181412        162629        143850        125077        106312        87555.4       68807.9       50069.6       31339.7      
1000          209600        200208        181427        162649        143874        125104        106340        87582.1       68831         50086.7       31348.5      
1050          209604        200215        181439        162665        143893        125125        106361        87602.5       68848.6       50099.7       31355.3      
1100          209607        200220        181447        162675        143905        125139        106375        87615.6       68860         50108.1       31359.6      
1150          209609        200223        181451        162681        143913        125147        106385        87624.7       68867.9       50114.2       31362.8      
1200          209610        200225        181455        162686        143919        125154        106391        87630.6       68873         50117.7       31364.6      
1250          209611        200226        181456        162688        143921        125157        106394        87633.7       68875.8       50119.9       31365.8      
1300          209611        200226        181456        162688        143921        125157        106394        87633.7       68875.8       50119.9       31365.8      
1350          209611        200226        181456        162688        143921        125157        106394        87633.7       68875.8       50119.9       31365.8      
1400          209611        200226        181456        162688        143921        125157        106394        87633.7       68875.8       50119.9       31365.8      
1450          209611        200226        181456        162688        143921        125157        106394        87633.7       68875.8       50119.9       31365.8      
1500          209611        200226        181456        162688        143921        125157        106394        87633.7       68875.8       50119.9       31365.8      
1550          209611        200226        181456        162688        143921        125157        106394        87633.7       68875.8       50119.9       31365.8      
1600          209611        200226        181456        162688        143921        125157        106394        87633.7       68875.8       50119.9       31365.8      
1650          209611        200226        181456        162688        143921        125157        106394        87633.7       68875.8       50119.9       31365.8      
1700          209611        200226        181456        162688        143921        125157        106394        87633.7       68875.8       50119.9       31365.8      
1750          209611        200226        181456        162688        143921        125157        106394        87633.7       68875.8       50119.9       31365.8      
1800          209611        200226        181456        162688        143921        125157        106394        87633.7       68875.8       50119.9       31365.8      
1850          209611        200226        181456        162688        143921        125157        106394        87633.7       68875.8       50119.9       31365.8      
1900          209611        200226        181456        162688        143921        125157        106394        87633.7       68875.8       50119.9       31365.8      
1950          209611        200226        181456        162688        143921        125157        106394        87633.7       68875.8       50119.9       31365.8      
2000          209611        200226        181456        162688        143921        125157        106394        87633.7       68875.8       50119.9       31365.8      
2050          209611        200226        181456        162688        143921        125157        106394        87633.7       68875.8       50119.9       31365.8      
2100          209611        200226        181456        162688        143921        125157        106394        87633.7       68875.8       50119.9       31365.8      
2150          209611        200226        181456        162688        143921        125157        106394        87633.7       68875.8       50119.9       31365.8      
2200          209611        200226        181456        162688        143921        125157        106394        87633.7       68875.8       50119.9       31365.8      
2250          209611        200226        181456        162688        143921        125157        106394        87633.7       68875.8       50119.9       31365.8      
2300          209611        200226        181456        162688        143921        125157        106394        87633.7       68875.8       50119.9       31365.8      
2350          209611        200226        181456        162688        143921        125157        106394        87633.7       68875.8       50119.9       31365.8      
2400          209611        200226        181456        162688        143921        125157        106394        87633.7       68875.8       50119.9       31365.8      
2450          209611        200226        181456        162688        143921        125157        106394        87633.7       68875.8       50119.9       31365.8      
2500          209611        200226        181456        162688        143921        125157        106394        87633.7       68875.8       50119.9       31365.8      
2550          209611        200226        181456        162688        143921        125157        106394        87633.7       68875.8       50119.9       31365.8      
2600          209611        200226        181456        162688        143921        125157        106394        87633.7       68875.8       50119.9       31365.8      
2650          209611        200226        181456        162688        143921        125157        106394        87633.7       68875.8       50119.9       31365.8      
2700          209611        200226        181456        162688        143921        125157        106394        87633.7       68875.8       50119.9       31365.8      
2750          209611        200226        181456        162688        143921        125157        106394        87633.7       68875.8       50119.9       31365.8      
2800          209611        200226        181456        162688        143921        125157        106394        87633.7       68875.8       50119.9       31365.8      
2850          209611        200226        181456        162688        143921        125157        106394        87633.7       68875.8       50119.9       31365.8      
2900          209611        200226        181456        162688        143921        125157        106394        87633.7       68875.8       50119.9       31365.8      
2950          209611        200226        181456        162688        143921        125157        106394        87633.7       68875.8       50119.9       31365.8      
3000          209611        200226        181456        162688        143921        125157        106394        87633.7       68875.8       50119.9       31365.8      
3050          209611        200226        181456        162688        143921        125157        106394        87633.7       68875.8       50119.9       31365.8      
3100          209611        200226        181456        162688        143921        125157        106394        87633.7       68875.8       50119.9       31365.8      
3150          209611        200226        181456        162688        143921        125157        106394        87633.7       68875.8       50119.9       31365.8      
3200          209611        200226        181456        162688        143921        125157        106394        87633.7       68875.8       50119.9       31365.8      
3250          209611        200226        181456        162688        143921        125157        106394        87633.7       68875.8       50119.9       31365.8      
3300          209611        200226        181456        162688        143921        125157        106394        87633.7       68875.8       50119.9       31365.8      
3350          209611        200226        181456        162688        143921        125157        106394        87633.7       68875.8       50119.9       31365.8      
3400          209611        200226        181456        162688        143921        125157        106394        87633.7       68875.8       50119.9       31365.8      
3450          209611        200226        181456        162688        143921        125157        106394        87633.7       68875.8       50119.9       31365.8      
3500          209611        200226        181456        162688        143921        125157        106394        87633.7       68875.8       50119.9       31365.8      
3550          209611        200226        181456        162688        143921        125157        106394        87633.7       68875.8       50119.9       31365.8      
3600          209611        200226        181456        162688        143921        125157        106394        87633.7       68875.8       50119.9       31365.8      
3650          209611        200226        181456        162688        143921        125157        106394        87633.7       68875.8       50119.9       31365.8      
3700          209611        200226        181456        162688        143921        125157        106394        87633.7       68875.8       50119.9       31365.8      
3750          209611        200226        181456        162688        143921        125157        106394        87633.7       68875.8       50119.9       31365.8      
3800          209611        200226        181456        162688        143921        125157        106394        87633.7       68875.8       50119.9       31365.8      
3850          209611        200226        181456        162688        143921        125157        106394        87633.7       68875.8       50119.9       31365.8      
3900          209611        200226        181456        162688        143921        125157        106394        87633.7       68875.8       50119.9       31365.8      
3950          209611        200226        181456        162688        143921        125157        106394        87633.7       68875.8       50119.9       31365.8      
4000          209611        200226        181456        162688        143921        125157        106394        87633.7       68875.8       50119.9       31365.8      
4050          209611        200226        181456        162688        143921        125157        106394        87633.7       68875.8       50119.9       31365.8      
4100          209611        200226        181456        162688        143921        125157        106394        87633.7       68875.8       50119.9       31365.8      
4150          209611        200226        181456        162688        143921        125157        106394        87633.7       68875.8       50119.9       31365.8      
4200          209611        200226        181456        162688        143921        125157        106394        87633.7       68875.8       50119.9       31365.8      
4250          209611        200226        181456        162688        143921        125157        106394        87633.7       68875.8       50119.9       31365.8      
4300          209611        200226        181456        162688        143921        125157        106394        87633.7       68875.8       50119.9       31365.8      
4350          209611        200226        181456        162688        143921        125157        106394        87633.7       68875.8       50119.9       31365.8      
4400          209611        200226        181456        162688        143921        125157        106394        87633.7       68875.8       50119.9       31365.8      
4450          209611        200226        181456        162688        143921        125157        106394        87633.7       68875.8       50119.9       31365.8      
4500          209611        200226        181456        162688        143921        125157        106394        87633.7       68875.8       50119.9       31365.8      
4550          209611        200226        181456        162688        143921        125157        106394        87633.7       68875.8       50119.9       31365.8      
4600          209611        200226        181456        162688        143921        125157        106394        87633.7       68875.8       50119.9       31365.8      
4650          209611        200226        181456        162688        143921        125157        106394        87633.7       68875.8       50119.9       31365.8      
4700          209611        200226        181456        162688        143921        125157        106394        87633.7       68875.8       50119.9       31365.8      
4750          209611        200226        181456        162688        143921        125157        106394        87633.7       68875.8       50119.9       31365.8      
4800          209611        200226        181456        162688        143921        125157        106394        87633.7       68875.8       50119.9       31365.8      
4850          209611        200226        181456        162688        143921        125157        106394        87633.7       68875.8       50119.9       31365.8      
4900          209611        200226        181456        162688        143921        125157        106394        87633.7       68875.8       50119.9       31365.8      
4950          209611        200226        181456        162688        143921        125157        106394        87633.7       68875.8       50119.9       31365.8      
5000          209611        200226        181456        162688        143921        125157        106394        87633.7       68875.8       50119.9       31365.8      
