# Probe 0 (0.0015 0.0015 0)
# Probe 1 (0.0015 0.0015 0.002)
# Probe 2 (0.0015 0.0015 0.004)
# Probe 3 (0.0015 0.0015 0.006)
# Probe 4 (0.0015 0.0015 0.008)
# Probe 5 (0.0015 0.0015 0.01)
# Probe 6 (0.0015 0.0015 0.012)
# Probe 7 (0.0015 0.0015 0.014)
# Probe 8 (0.0015 0.0015 0.016)
# Probe 9 (0.0015 0.0015 0.018)
# Probe 10 (0.0015 0.0015 0.02)
# Time        0             1             2             3             4             5             6             7             8             9             10           
50            (-0.137828 -0.137828 13449.1) (-0.0538203 -0.0538203 12752.7) (-0.0194312 -0.0194312 10514.1) (0.0330035 0.0330035 7690.98) (0.0459492 0.0459492 5122.8) (0.0391968 0.0391968 3338.38) (0.0307505 0.0307505 2432.19) (0.0227809 0.0227809 2295.38) (0.0143369 0.0143368 2798.94) (0.010145 0.010145 3827.35) (-0.0395707 -0.0395707 5206.91)
100           (-0.0514028 -0.0514028 9848.04) (-0.027648 -0.027648 9650.54) (-0.0216598 -0.0216598 8985.1) (-0.00805987 -0.00805987 7991.04) (0.00487226 0.00487227 6788.26) (0.0157463 0.0157464 5585) (0.0217834 0.0217839 4609.31) (0.0216533 0.0216534 4015.89) (0.0139381 0.0139378 3842.26) (-0.00253273 -0.00253275 4022.75) (-0.010378 -0.010378 4408.34)
150           (-0.0258108 -0.0258108 8402.47) (-0.0154468 -0.0154468 8313.45) (-0.0143839 -0.0143839 8013.44) (-0.00941594 -0.00941594 7555.27) (-0.00312109 -0.00312109 6964.3) (0.0037099 0.00370996 6294.07) (0.00918492 0.00918566 5625.33) (0.0119393 0.0119393 5050.38) (0.0104276 0.0104268 4644.39) (0.00425864 0.00425857 4438.29) (0.00136935 0.00136934 4404.9)
200           (-0.0142091 -0.0142091 7660.54) (-0.00891006 -0.00891006 7611.89) (-0.00882743 -0.00882743 7447.68) (-0.00696364 -0.00696364 7194.05) (-0.00432515 -0.00432515 6857.69) (-0.000937244 -0.000937209 6455.18) (0.00255126 0.00255168 6014.53) (0.00533897 0.00533896 5574.59) (0.00635514 0.00635462 5180.46) (0.00537943 0.00537939 4874.45) (0.00618429 0.00618429 4686.41)
250           (0.00871218 0.00871218 7221.22) (0.00607059 0.00607059 7191.19) (0.00535321 0.00535321 7089.59) (0.00407421 0.00407421 6931.53) (0.00252835 0.00252835 6718.66) (0.00081195 0.000811938 6456.87) (-0.000869659 -0.000869798 6157.31) (-0.00232714 -0.00232714 5837.23) (-0.00350744 -0.00350732 5520.49) (-0.00486252 -0.00486252 5237.64) (-0.00807848 -0.00807848 5027.37)
300           (0.00630454 0.00630454 6935.81) (0.00447408 0.00447408 6915.78) (0.00406829 0.00406829 6847.95) (0.00326486 0.00326486 6742.03) (0.00222846 0.00222846 6598.23) (0.00097508 0.000975067 6419) (-0.000401774 -0.000401938 6209.62) (-0.00177898 -0.00177897 5979.05) (-0.00303154 -0.00303123 5740.94) (-0.00420196 -0.00420193 5515.62) (-0.00620069 -0.00620068 5335.03)
350           (0.00512841 0.00512841 6739.81) (0.00369644 0.00369644 6725.87) (0.00343994 0.00343994 6678.65) (0.0028582 0.0028582 6604.83) (0.00206865 0.00206865 6504.28) (0.00106465 0.00106464 6378.27) (-0.000106117 -0.000106247 6229.79) (-0.00136574 -0.00136572 6064.23) (-0.00260279 -0.00260249 5890.23) (-0.00371377 -0.00371375 5721.49) (-0.00530888 -0.00530887 5581.61)
400           (0.0168666 0.0168666 6601.37) (0.0118544 0.0118544 6591.46) (0.0123082 0.0123082 6557.95) (0.0111884 0.0111884 6505.54) (0.00924983 0.00924983 6434.13) (0.0064881 0.00648809 6344.49) (0.00292116 0.00292103 6238.59) (-0.00136164 -0.00136163 6120) (-0.00618703 -0.00618671 5994.55) (-0.0107475 -0.0107475 5871.72) (-0.0208238 -0.0208238 5768.35)
450           (-0.0102571 -0.0102571 6502.42) (-0.00725129 -0.00725129 6495.34) (-0.0060782 -0.0060782 6471.36) (-0.00384448 -0.00384448 6433.9) (-0.00150819 -0.00150819 6382.89) (0.000464977 0.000464964 6318.87) (0.00175149 0.00175133 6243.23) (0.00231737 0.0023174 6158.47) (0.00247693 0.00247755 6068.65) (0.00261759 0.00261764 5980.43) (0.00634522 0.00634522 5905.7)
500           (-0.00758245 -0.00758245 6431.45) (-0.00531923 -0.00531923 6426.37) (-0.00426536 -0.00426536 6409.19) (-0.00252578 -0.00252578 6382.38) (-0.000873998 -0.000873999 6345.9) (0.000373378 0.000373368 6300.17) (0.001098 0.00109789 6246.17) (0.00140913 0.00140916 6185.69) (0.00159757 0.00159801 6121.63) (0.0019045 0.00190454 6058.66) (0.0048576 0.0048576 6005.18)
550           (-0.00544503 -0.00544503 6380.56) (-0.00381711 -0.00381711 6376.92) (-0.00304974 -0.00304974 6364.63) (-0.00179513 -0.00179513 6345.45) (-0.000612526 -0.000612526 6319.39) (0.00027206 0.000272053 6286.74) (0.000779824 0.000779743 6248.23) (0.000995849 0.000995868 6205.14) (0.00113162 0.00113193 6159.54) (0.00135949 0.00135951 6114.72) (0.00350046 0.00350046 6076.64)
600           (-0.00389366 -0.00389366 6344.13) (-0.00272908 -0.00272908 6341.53) (-0.00217969 -0.00217969 6332.75) (-0.00128171 -0.00128171 6319.05) (-0.000435455 -0.000435456 6300.45) (0.000197257 0.000197252 6277.17) (0.000559988 0.000559929 6249.74) (0.000713438 0.000713452 6219.07) (0.000808532 0.000808759 6186.64) (0.000968673 0.000968691 6154.8) (0.00249896 0.00249896 6127.73)
650           (-0.000708791 -0.000708791 6318.1) (9.2659e-05 9.2659e-05 6316.25) (-0.000310493 -0.000310493 6309.97) (-0.000526465 -0.000526465 6300.2) (-0.00055087 -0.00055087 6286.94) (-0.000669131 -0.000669134 6270.36) (-0.000731049 -0.000731063 6250.84) (-0.000689524 -0.000689491 6229.04) (-0.000538746 -0.000538297 6206) (-0.000462776 -0.000462753 6183.39) (0.00130934 0.00130934 6164.18)
700           (4.06275e-06 4.06275e-06 6299.52) (-0.00226763 -0.00226763 6298.12) (0.00737715 0.00737715 6293.87) (-0.00149286 -0.00149286 6286.72) (0.00419982 0.00419982 6277.41) (-0.000819327 -0.000819302 6265.51) (0.00103157 0.00103158 6251.67) (-0.00174827 -0.00174817 6236.13) (-0.00152595 -0.00152562 6219.79) (-0.0037323 -0.00373232 6203.71) (-0.00136606 -0.00136608 6190.1)
750           (-0.00625854 -0.00625854 6286.35) (-0.0061672 -0.0061672 6285.35) (-0.000730611 -0.000730611 6282.29) (-0.00549787 -0.00549787 6277.22) (-0.00168947 -0.00168947 6270.56) (-0.00295054 -0.00295053 6262.11) (-0.0012921 -0.00129212 6252.24) (-0.000370547 -0.000370507 6241.22) (0.000869703 0.000869898 6229.58) (0.00239689 0.0023969 6218.19) (0.00708569 0.00708569 6208.5)
800           (0.000161343 0.000161343 6277.04) (-0.0147605 -0.0147605 6276.18) (0.0144239 0.0144239 6274.3) (-0.00701929 -0.00701929 6270.4) (0.00724789 0.00724794 6265.84) (-0.00236494 -0.0023648 6259.63) (0.00157739 0.0015772 6252.69) (-0.00206665 -0.00206657 6244.75) (-0.00218808 -0.00218745 6236.49) (-0.00396016 -0.00396007 6228.36) (-0.00545532 -0.00545545 6221.48)
850           (0.00131119 0.00131119 6270.45) (0.000768022 0.000768023 6269.92) (0.0100529 0.0100529 6268.45) (-0.00743268 -0.00743266 6265.63) (0.00850368 0.00850397 6262.43) (-0.00794927 -0.00794859 6257.87) (0.00415911 0.00415819 6253.01) (-0.00503168 -0.00503184 6247.25) (0.000579558 0.000580078 6241.44) (-0.00288277 -0.00288282 6235.6) (-0.00245048 -0.00245051 6230.74)
900           (0.00292713 0.00292713 6265.82) (-0.0010922 -0.0010922 6265.44) (-0.00614195 -0.00614196 6264.2) (0.00835076 0.00835069 6262.47) (-0.0038713 -0.00387202 6259.86) (0.0063685 0.00636744 6256.83) (-0.00249091 -0.00248852 6253.12) (0.000823952 0.000824474 6249.1) (-0.00280692 -0.00280755 6244.84) (-0.00277895 -0.00277904 6240.71) (-0.00265059 -0.00265057 6237.24)
950           (-0.00830301 -0.00830301 6262.57) (-0.00467308 -0.00467309 6262.33) (-0.00064488 -0.000644909 6261.46) (-0.00448235 -0.00448221 6260.07) (0.00299041 0.00299141 6258.23) (-0.00107455 -0.00107409 6255.92) (0.0049507 0.00494969 6253.31) (-0.000224226 -0.000225026 6250.29) (0.00225228 0.00225297 6247.23) (0.00291139 0.00291166 6244.24) (0.00462306 0.00462299 6241.75)
1000          (-0.00367104 -0.00367104 6260.45) (-0.00397551 -0.00397551 6260.24) (-0.00435676 -0.00435674 6259.55) (9.2712e-05 9.26422e-05 6258.53) (-0.00391572 -0.00391618 6257.07) (0.000316078 0.00031592 6255.36) (-0.000784706 -0.000783349 6253.33) (0.00191687 0.00191724 6251.13) (0.00305501 0.00305491 6248.84) (0.00433334 0.00433321 6246.64) (0.00482552 0.00482555 6244.81)
1050          (0.00386206 0.00386206 6258.82) (0.00384163 0.00384163 6258.66) (0.00314494 0.00314495 6258.12) (0.000399557 0.000399648 6257.27) (0.00335785 0.00335795 6256.25) (0.00186401 0.00186407 6254.91) (0.000341855 0.000342339 6253.38) (0.000900129 0.000900066 6251.77) (-0.00218872 -0.00218864 6250.05) (-0.00287124 -0.00287117 6248.46) (-0.0037594 -0.00375937 6247.16)
1100          (0.0684436 0.0684436 6257.76) (0.0370069 0.0370069 6257.63) (0.0354941 0.0354941 6257.19) (0.0532851 0.0532857 6256.51) (0.0152912 0.0152934 6255.68) (0.0206566 0.0206436 6254.61) (0.00640943 0.00637453 6253.42) (-0.0175865 -0.0176028 6252.15) (-0.0230936 -0.0230694 6250.85) (-0.0363621 -0.0363615 6249.63) (-0.0807448 -0.0807451 6248.67)
1150          (0.00349708 0.00349709 6257.03) (0.0187164 0.0187165 6256.91) (0.0109378 0.0109377 6256.55) (0.0111237 0.0111235 6256.04) (0.00487209 0.00487204 6255.23) (-0.00203634 -0.00203315 6254.38) (-0.00537123 -0.0053753 6253.43) (-0.0124894 -0.0124889 6252.33) (-0.000391108 -0.000384133 6251.37) (-0.00194752 -0.00195073 6250.47) (0.0140482 0.0140474 6249.73)
1200          (-0.000135802 -0.000135801 6256.58) (0.00352494 0.00352494 6256.48) (0.0032055 0.0032055 6256.14) (-0.00209285 -0.00209288 6255.63) (0.00472783 0.00472819 6255.03) (0.00236908 0.00236747 6254.27) (-0.000963853 -0.000965013 6253.43) (0.00352231 0.00352083 6252.6) (-0.00188553 -0.00188427 6251.73) (-0.00169931 -0.00169875 6250.97) (-0.00235403 -0.00235359 6250.41)
1250          (-0.0014229 -0.0014229 6256.36) (0.00109038 0.00109038 6256.26) (0.00126005 0.00126004 6255.94) (-0.0023551 -0.0023551 6255.46) (0.00277176 0.00277186 6254.89) (0.00129693 0.00129624 6254.18) (-0.00118669 -0.00118454 6253.4) (0.00223239 0.00223168 6252.65) (-0.0013369 -0.00133655 6251.88) (0.000252264 0.000252899 6251.23) (0.00158101 0.00158121 6250.8)
1300          (-0.0014229 -0.0014229 6256.36) (0.00109038 0.00109038 6256.26) (0.00126005 0.00126004 6255.94) (-0.0023551 -0.0023551 6255.46) (0.00277176 0.00277186 6254.89) (0.00129693 0.00129624 6254.18) (-0.00118669 -0.00118454 6253.4) (0.00223239 0.00223168 6252.65) (-0.0013369 -0.00133655 6251.88) (0.000252264 0.000252899 6251.23) (0.00158101 0.00158121 6250.8)
1350          (-0.0014229 -0.0014229 6256.36) (0.00109038 0.00109038 6256.26) (0.00126005 0.00126004 6255.94) (-0.0023551 -0.0023551 6255.46) (0.00277176 0.00277186 6254.89) (0.00129693 0.00129624 6254.18) (-0.00118669 -0.00118454 6253.4) (0.00223239 0.00223168 6252.65) (-0.0013369 -0.00133655 6251.88) (0.000252264 0.000252899 6251.23) (0.00158101 0.00158121 6250.8)
1400          (-0.0014229 -0.0014229 6256.36) (0.00109038 0.00109038 6256.26) (0.00126005 0.00126004 6255.94) (-0.0023551 -0.0023551 6255.46) (0.00277176 0.00277186 6254.89) (0.00129693 0.00129624 6254.18) (-0.00118669 -0.00118454 6253.4) (0.00223239 0.00223168 6252.65) (-0.0013369 -0.00133655 6251.88) (0.000252264 0.000252899 6251.23) (0.00158101 0.00158121 6250.8)
1450          (-0.0014229 -0.0014229 6256.36) (0.00109038 0.00109038 6256.26) (0.00126005 0.00126004 6255.94) (-0.0023551 -0.0023551 6255.46) (0.00277176 0.00277186 6254.89) (0.00129693 0.00129624 6254.18) (-0.00118669 -0.00118454 6253.4) (0.00223239 0.00223168 6252.65) (-0.0013369 -0.00133655 6251.88) (0.000252264 0.000252899 6251.23) (0.00158101 0.00158121 6250.8)
1500          (-0.0014229 -0.0014229 6256.36) (0.00109038 0.00109038 6256.26) (0.00126005 0.00126004 6255.94) (-0.0023551 -0.0023551 6255.46) (0.00277176 0.00277186 6254.89) (0.00129693 0.00129624 6254.18) (-0.00118669 -0.00118454 6253.4) (0.00223239 0.00223168 6252.65) (-0.0013369 -0.00133655 6251.88) (0.000252264 0.000252899 6251.23) (0.00158101 0.00158121 6250.8)
1550          (-0.0014229 -0.0014229 6256.36) (0.00109038 0.00109038 6256.26) (0.00126005 0.00126004 6255.94) (-0.0023551 -0.0023551 6255.46) (0.00277176 0.00277186 6254.89) (0.00129693 0.00129624 6254.18) (-0.00118669 -0.00118454 6253.4) (0.00223239 0.00223168 6252.65) (-0.0013369 -0.00133655 6251.88) (0.000252264 0.000252899 6251.23) (0.00158101 0.00158121 6250.8)
1600          (-0.0014229 -0.0014229 6256.36) (0.00109038 0.00109038 6256.26) (0.00126005 0.00126004 6255.94) (-0.0023551 -0.0023551 6255.46) (0.00277176 0.00277186 6254.89) (0.00129693 0.00129624 6254.18) (-0.00118669 -0.00118454 6253.4) (0.00223239 0.00223168 6252.65) (-0.0013369 -0.00133655 6251.88) (0.000252264 0.000252899 6251.23) (0.00158101 0.00158121 6250.8)
1650          (-0.0014229 -0.0014229 6256.36) (0.00109038 0.00109038 6256.26) (0.00126005 0.00126004 6255.94) (-0.0023551 -0.0023551 6255.46) (0.00277176 0.00277186 6254.89) (0.00129693 0.00129624 6254.18) (-0.00118669 -0.00118454 6253.4) (0.00223239 0.00223168 6252.65) (-0.0013369 -0.00133655 6251.88) (0.000252264 0.000252899 6251.23) (0.00158101 0.00158121 6250.8)
1700          (-0.0014229 -0.0014229 6256.36) (0.00109038 0.00109038 6256.26) (0.00126005 0.00126004 6255.94) (-0.0023551 -0.0023551 6255.46) (0.00277176 0.00277186 6254.89) (0.00129693 0.00129624 6254.18) (-0.00118669 -0.00118454 6253.4) (0.00223239 0.00223168 6252.65) (-0.0013369 -0.00133655 6251.88) (0.000252264 0.000252899 6251.23) (0.00158101 0.00158121 6250.8)
1750          (-0.0014229 -0.0014229 6256.36) (0.00109038 0.00109038 6256.26) (0.00126005 0.00126004 6255.94) (-0.0023551 -0.0023551 6255.46) (0.00277176 0.00277186 6254.89) (0.00129693 0.00129624 6254.18) (-0.00118669 -0.00118454 6253.4) (0.00223239 0.00223168 6252.65) (-0.0013369 -0.00133655 6251.88) (0.000252264 0.000252899 6251.23) (0.00158101 0.00158121 6250.8)
1800          (-0.0014229 -0.0014229 6256.36) (0.00109038 0.00109038 6256.26) (0.00126005 0.00126004 6255.94) (-0.0023551 -0.0023551 6255.46) (0.00277176 0.00277186 6254.89) (0.00129693 0.00129624 6254.18) (-0.00118669 -0.00118454 6253.4) (0.00223239 0.00223168 6252.65) (-0.0013369 -0.00133655 6251.88) (0.000252264 0.000252899 6251.23) (0.00158101 0.00158121 6250.8)
1850          (-0.0014229 -0.0014229 6256.36) (0.00109038 0.00109038 6256.26) (0.00126005 0.00126004 6255.94) (-0.0023551 -0.0023551 6255.46) (0.00277176 0.00277186 6254.89) (0.00129693 0.00129624 6254.18) (-0.00118669 -0.00118454 6253.4) (0.00223239 0.00223168 6252.65) (-0.0013369 -0.00133655 6251.88) (0.000252264 0.000252899 6251.23) (0.00158101 0.00158121 6250.8)
1900          (-0.0014229 -0.0014229 6256.36) (0.00109038 0.00109038 6256.26) (0.00126005 0.00126004 6255.94) (-0.0023551 -0.0023551 6255.46) (0.00277176 0.00277186 6254.89) (0.00129693 0.00129624 6254.18) (-0.00118669 -0.00118454 6253.4) (0.00223239 0.00223168 6252.65) (-0.0013369 -0.00133655 6251.88) (0.000252264 0.000252899 6251.23) (0.00158101 0.00158121 6250.8)
1950          (-0.0014229 -0.0014229 6256.36) (0.00109038 0.00109038 6256.26) (0.00126005 0.00126004 6255.94) (-0.0023551 -0.0023551 6255.46) (0.00277176 0.00277186 6254.89) (0.00129693 0.00129624 6254.18) (-0.00118669 -0.00118454 6253.4) (0.00223239 0.00223168 6252.65) (-0.0013369 -0.00133655 6251.88) (0.000252264 0.000252899 6251.23) (0.00158101 0.00158121 6250.8)
2000          (-0.0014229 -0.0014229 6256.36) (0.00109038 0.00109038 6256.26) (0.00126005 0.00126004 6255.94) (-0.0023551 -0.0023551 6255.46) (0.00277176 0.00277186 6254.89) (0.00129693 0.00129624 6254.18) (-0.00118669 -0.00118454 6253.4) (0.00223239 0.00223168 6252.65) (-0.0013369 -0.00133655 6251.88) (0.000252264 0.000252899 6251.23) (0.00158101 0.00158121 6250.8)
2050          (-0.0014229 -0.0014229 6256.36) (0.00109038 0.00109038 6256.26) (0.00126005 0.00126004 6255.94) (-0.0023551 -0.0023551 6255.46) (0.00277176 0.00277186 6254.89) (0.00129693 0.00129624 6254.18) (-0.00118669 -0.00118454 6253.4) (0.00223239 0.00223168 6252.65) (-0.0013369 -0.00133655 6251.88) (0.000252264 0.000252899 6251.23) (0.00158101 0.00158121 6250.8)
2100          (-0.0014229 -0.0014229 6256.36) (0.00109038 0.00109038 6256.26) (0.00126005 0.00126004 6255.94) (-0.0023551 -0.0023551 6255.46) (0.00277176 0.00277186 6254.89) (0.00129693 0.00129624 6254.18) (-0.00118669 -0.00118454 6253.4) (0.00223239 0.00223168 6252.65) (-0.0013369 -0.00133655 6251.88) (0.000252264 0.000252899 6251.23) (0.00158101 0.00158121 6250.8)
2150          (-0.0014229 -0.0014229 6256.36) (0.00109038 0.00109038 6256.26) (0.00126005 0.00126004 6255.94) (-0.0023551 -0.0023551 6255.46) (0.00277176 0.00277186 6254.89) (0.00129693 0.00129624 6254.18) (-0.00118669 -0.00118454 6253.4) (0.00223239 0.00223168 6252.65) (-0.0013369 -0.00133655 6251.88) (0.000252264 0.000252899 6251.23) (0.00158101 0.00158121 6250.8)
2200          (-0.0014229 -0.0014229 6256.36) (0.00109038 0.00109038 6256.26) (0.00126005 0.00126004 6255.94) (-0.0023551 -0.0023551 6255.46) (0.00277176 0.00277186 6254.89) (0.00129693 0.00129624 6254.18) (-0.00118669 -0.00118454 6253.4) (0.00223239 0.00223168 6252.65) (-0.0013369 -0.00133655 6251.88) (0.000252264 0.000252899 6251.23) (0.00158101 0.00158121 6250.8)
2250          (-0.0014229 -0.0014229 6256.36) (0.00109038 0.00109038 6256.26) (0.00126005 0.00126004 6255.94) (-0.0023551 -0.0023551 6255.46) (0.00277176 0.00277186 6254.89) (0.00129693 0.00129624 6254.18) (-0.00118669 -0.00118454 6253.4) (0.00223239 0.00223168 6252.65) (-0.0013369 -0.00133655 6251.88) (0.000252264 0.000252899 6251.23) (0.00158101 0.00158121 6250.8)
2300          (-0.0014229 -0.0014229 6256.36) (0.00109038 0.00109038 6256.26) (0.00126005 0.00126004 6255.94) (-0.0023551 -0.0023551 6255.46) (0.00277176 0.00277186 6254.89) (0.00129693 0.00129624 6254.18) (-0.00118669 -0.00118454 6253.4) (0.00223239 0.00223168 6252.65) (-0.0013369 -0.00133655 6251.88) (0.000252264 0.000252899 6251.23) (0.00158101 0.00158121 6250.8)
2350          (-0.0014229 -0.0014229 6256.36) (0.00109038 0.00109038 6256.26) (0.00126005 0.00126004 6255.94) (-0.0023551 -0.0023551 6255.46) (0.00277176 0.00277186 6254.89) (0.00129693 0.00129624 6254.18) (-0.00118669 -0.00118454 6253.4) (0.00223239 0.00223168 6252.65) (-0.0013369 -0.00133655 6251.88) (0.000252264 0.000252899 6251.23) (0.00158101 0.00158121 6250.8)
2400          (-0.0014229 -0.0014229 6256.36) (0.00109038 0.00109038 6256.26) (0.00126005 0.00126004 6255.94) (-0.0023551 -0.0023551 6255.46) (0.00277176 0.00277186 6254.89) (0.00129693 0.00129624 6254.18) (-0.00118669 -0.00118454 6253.4) (0.00223239 0.00223168 6252.65) (-0.0013369 -0.00133655 6251.88) (0.000252264 0.000252899 6251.23) (0.00158101 0.00158121 6250.8)
2450          (-0.0014229 -0.0014229 6256.36) (0.00109038 0.00109038 6256.26) (0.00126005 0.00126004 6255.94) (-0.0023551 -0.0023551 6255.46) (0.00277176 0.00277186 6254.89) (0.00129693 0.00129624 6254.18) (-0.00118669 -0.00118454 6253.4) (0.00223239 0.00223168 6252.65) (-0.0013369 -0.00133655 6251.88) (0.000252264 0.000252899 6251.23) (0.00158101 0.00158121 6250.8)
2500          (-0.0014229 -0.0014229 6256.36) (0.00109038 0.00109038 6256.26) (0.00126005 0.00126004 6255.94) (-0.0023551 -0.0023551 6255.46) (0.00277176 0.00277186 6254.89) (0.00129693 0.00129624 6254.18) (-0.00118669 -0.00118454 6253.4) (0.00223239 0.00223168 6252.65) (-0.0013369 -0.00133655 6251.88) (0.000252264 0.000252899 6251.23) (0.00158101 0.00158121 6250.8)
2550          (-0.0014229 -0.0014229 6256.36) (0.00109038 0.00109038 6256.26) (0.00126005 0.00126004 6255.94) (-0.0023551 -0.0023551 6255.46) (0.00277176 0.00277186 6254.89) (0.00129693 0.00129624 6254.18) (-0.00118669 -0.00118454 6253.4) (0.00223239 0.00223168 6252.65) (-0.0013369 -0.00133655 6251.88) (0.000252264 0.000252899 6251.23) (0.00158101 0.00158121 6250.8)
2600          (-0.0014229 -0.0014229 6256.36) (0.00109038 0.00109038 6256.26) (0.00126005 0.00126004 6255.94) (-0.0023551 -0.0023551 6255.46) (0.00277176 0.00277186 6254.89) (0.00129693 0.00129624 6254.18) (-0.00118669 -0.00118454 6253.4) (0.00223239 0.00223168 6252.65) (-0.0013369 -0.00133655 6251.88) (0.000252264 0.000252899 6251.23) (0.00158101 0.00158121 6250.8)
2650          (-0.0014229 -0.0014229 6256.36) (0.00109038 0.00109038 6256.26) (0.00126005 0.00126004 6255.94) (-0.0023551 -0.0023551 6255.46) (0.00277176 0.00277186 6254.89) (0.00129693 0.00129624 6254.18) (-0.00118669 -0.00118454 6253.4) (0.00223239 0.00223168 6252.65) (-0.0013369 -0.00133655 6251.88) (0.000252264 0.000252899 6251.23) (0.00158101 0.00158121 6250.8)
2700          (-0.0014229 -0.0014229 6256.36) (0.00109038 0.00109038 6256.26) (0.00126005 0.00126004 6255.94) (-0.0023551 -0.0023551 6255.46) (0.00277176 0.00277186 6254.89) (0.00129693 0.00129624 6254.18) (-0.00118669 -0.00118454 6253.4) (0.00223239 0.00223168 6252.65) (-0.0013369 -0.00133655 6251.88) (0.000252264 0.000252899 6251.23) (0.00158101 0.00158121 6250.8)
2750          (-0.0014229 -0.0014229 6256.36) (0.00109038 0.00109038 6256.26) (0.00126005 0.00126004 6255.94) (-0.0023551 -0.0023551 6255.46) (0.00277176 0.00277186 6254.89) (0.00129693 0.00129624 6254.18) (-0.00118669 -0.00118454 6253.4) (0.00223239 0.00223168 6252.65) (-0.0013369 -0.00133655 6251.88) (0.000252264 0.000252899 6251.23) (0.00158101 0.00158121 6250.8)
2800          (-0.0014229 -0.0014229 6256.36) (0.00109038 0.00109038 6256.26) (0.00126005 0.00126004 6255.94) (-0.0023551 -0.0023551 6255.46) (0.00277176 0.00277186 6254.89) (0.00129693 0.00129624 6254.18) (-0.00118669 -0.00118454 6253.4) (0.00223239 0.00223168 6252.65) (-0.0013369 -0.00133655 6251.88) (0.000252264 0.000252899 6251.23) (0.00158101 0.00158121 6250.8)
2850          (-0.0014229 -0.0014229 6256.36) (0.00109038 0.00109038 6256.26) (0.00126005 0.00126004 6255.94) (-0.0023551 -0.0023551 6255.46) (0.00277176 0.00277186 6254.89) (0.00129693 0.00129624 6254.18) (-0.00118669 -0.00118454 6253.4) (0.00223239 0.00223168 6252.65) (-0.0013369 -0.00133655 6251.88) (0.000252264 0.000252899 6251.23) (0.00158101 0.00158121 6250.8)
2900          (-0.0014229 -0.0014229 6256.36) (0.00109038 0.00109038 6256.26) (0.00126005 0.00126004 6255.94) (-0.0023551 -0.0023551 6255.46) (0.00277176 0.00277186 6254.89) (0.00129693 0.00129624 6254.18) (-0.00118669 -0.00118454 6253.4) (0.00223239 0.00223168 6252.65) (-0.0013369 -0.00133655 6251.88) (0.000252264 0.000252899 6251.23) (0.00158101 0.00158121 6250.8)
2950          (-0.0014229 -0.0014229 6256.36) (0.00109038 0.00109038 6256.26) (0.00126005 0.00126004 6255.94) (-0.0023551 -0.0023551 6255.46) (0.00277176 0.00277186 6254.89) (0.00129693 0.00129624 6254.18) (-0.00118669 -0.00118454 6253.4) (0.00223239 0.00223168 6252.65) (-0.0013369 -0.00133655 6251.88) (0.000252264 0.000252899 6251.23) (0.00158101 0.00158121 6250.8)
3000          (-0.0014229 -0.0014229 6256.36) (0.00109038 0.00109038 6256.26) (0.00126005 0.00126004 6255.94) (-0.0023551 -0.0023551 6255.46) (0.00277176 0.00277186 6254.89) (0.00129693 0.00129624 6254.18) (-0.00118669 -0.00118454 6253.4) (0.00223239 0.00223168 6252.65) (-0.0013369 -0.00133655 6251.88) (0.000252264 0.000252899 6251.23) (0.00158101 0.00158121 6250.8)
3050          (-0.0014229 -0.0014229 6256.36) (0.00109038 0.00109038 6256.26) (0.00126005 0.00126004 6255.94) (-0.0023551 -0.0023551 6255.46) (0.00277176 0.00277186 6254.89) (0.00129693 0.00129624 6254.18) (-0.00118669 -0.00118454 6253.4) (0.00223239 0.00223168 6252.65) (-0.0013369 -0.00133655 6251.88) (0.000252264 0.000252899 6251.23) (0.00158101 0.00158121 6250.8)
3100          (-0.0014229 -0.0014229 6256.36) (0.00109038 0.00109038 6256.26) (0.00126005 0.00126004 6255.94) (-0.0023551 -0.0023551 6255.46) (0.00277176 0.00277186 6254.89) (0.00129693 0.00129624 6254.18) (-0.00118669 -0.00118454 6253.4) (0.00223239 0.00223168 6252.65) (-0.0013369 -0.00133655 6251.88) (0.000252264 0.000252899 6251.23) (0.00158101 0.00158121 6250.8)
3150          (-0.0014229 -0.0014229 6256.36) (0.00109038 0.00109038 6256.26) (0.00126005 0.00126004 6255.94) (-0.0023551 -0.0023551 6255.46) (0.00277176 0.00277186 6254.89) (0.00129693 0.00129624 6254.18) (-0.00118669 -0.00118454 6253.4) (0.00223239 0.00223168 6252.65) (-0.0013369 -0.00133655 6251.88) (0.000252264 0.000252899 6251.23) (0.00158101 0.00158121 6250.8)
3200          (-0.0014229 -0.0014229 6256.36) (0.00109038 0.00109038 6256.26) (0.00126005 0.00126004 6255.94) (-0.0023551 -0.0023551 6255.46) (0.00277176 0.00277186 6254.89) (0.00129693 0.00129624 6254.18) (-0.00118669 -0.00118454 6253.4) (0.00223239 0.00223168 6252.65) (-0.0013369 -0.00133655 6251.88) (0.000252264 0.000252899 6251.23) (0.00158101 0.00158121 6250.8)
3250          (-0.0014229 -0.0014229 6256.36) (0.00109038 0.00109038 6256.26) (0.00126005 0.00126004 6255.94) (-0.0023551 -0.0023551 6255.46) (0.00277176 0.00277186 6254.89) (0.00129693 0.00129624 6254.18) (-0.00118669 -0.00118454 6253.4) (0.00223239 0.00223168 6252.65) (-0.0013369 -0.00133655 6251.88) (0.000252264 0.000252899 6251.23) (0.00158101 0.00158121 6250.8)
3300          (-0.0014229 -0.0014229 6256.36) (0.00109038 0.00109038 6256.26) (0.00126005 0.00126004 6255.94) (-0.0023551 -0.0023551 6255.46) (0.00277176 0.00277186 6254.89) (0.00129693 0.00129624 6254.18) (-0.00118669 -0.00118454 6253.4) (0.00223239 0.00223168 6252.65) (-0.0013369 -0.00133655 6251.88) (0.000252264 0.000252899 6251.23) (0.00158101 0.00158121 6250.8)
3350          (-0.0014229 -0.0014229 6256.36) (0.00109038 0.00109038 6256.26) (0.00126005 0.00126004 6255.94) (-0.0023551 -0.0023551 6255.46) (0.00277176 0.00277186 6254.89) (0.00129693 0.00129624 6254.18) (-0.00118669 -0.00118454 6253.4) (0.00223239 0.00223168 6252.65) (-0.0013369 -0.00133655 6251.88) (0.000252264 0.000252899 6251.23) (0.00158101 0.00158121 6250.8)
3400          (-0.0014229 -0.0014229 6256.36) (0.00109038 0.00109038 6256.26) (0.00126005 0.00126004 6255.94) (-0.0023551 -0.0023551 6255.46) (0.00277176 0.00277186 6254.89) (0.00129693 0.00129624 6254.18) (-0.00118669 -0.00118454 6253.4) (0.00223239 0.00223168 6252.65) (-0.0013369 -0.00133655 6251.88) (0.000252264 0.000252899 6251.23) (0.00158101 0.00158121 6250.8)
3450          (-0.0014229 -0.0014229 6256.36) (0.00109038 0.00109038 6256.26) (0.00126005 0.00126004 6255.94) (-0.0023551 -0.0023551 6255.46) (0.00277176 0.00277186 6254.89) (0.00129693 0.00129624 6254.18) (-0.00118669 -0.00118454 6253.4) (0.00223239 0.00223168 6252.65) (-0.0013369 -0.00133655 6251.88) (0.000252264 0.000252899 6251.23) (0.00158101 0.00158121 6250.8)
3500          (-0.0014229 -0.0014229 6256.36) (0.00109038 0.00109038 6256.26) (0.00126005 0.00126004 6255.94) (-0.0023551 -0.0023551 6255.46) (0.00277176 0.00277186 6254.89) (0.00129693 0.00129624 6254.18) (-0.00118669 -0.00118454 6253.4) (0.00223239 0.00223168 6252.65) (-0.0013369 -0.00133655 6251.88) (0.000252264 0.000252899 6251.23) (0.00158101 0.00158121 6250.8)
3550          (-0.0014229 -0.0014229 6256.36) (0.00109038 0.00109038 6256.26) (0.00126005 0.00126004 6255.94) (-0.0023551 -0.0023551 6255.46) (0.00277176 0.00277186 6254.89) (0.00129693 0.00129624 6254.18) (-0.00118669 -0.00118454 6253.4) (0.00223239 0.00223168 6252.65) (-0.0013369 -0.00133655 6251.88) (0.000252264 0.000252899 6251.23) (0.00158101 0.00158121 6250.8)
3600          (-0.0014229 -0.0014229 6256.36) (0.00109038 0.00109038 6256.26) (0.00126005 0.00126004 6255.94) (-0.0023551 -0.0023551 6255.46) (0.00277176 0.00277186 6254.89) (0.00129693 0.00129624 6254.18) (-0.00118669 -0.00118454 6253.4) (0.00223239 0.00223168 6252.65) (-0.0013369 -0.00133655 6251.88) (0.000252264 0.000252899 6251.23) (0.00158101 0.00158121 6250.8)
3650          (-0.0014229 -0.0014229 6256.36) (0.00109038 0.00109038 6256.26) (0.00126005 0.00126004 6255.94) (-0.0023551 -0.0023551 6255.46) (0.00277176 0.00277186 6254.89) (0.00129693 0.00129624 6254.18) (-0.00118669 -0.00118454 6253.4) (0.00223239 0.00223168 6252.65) (-0.0013369 -0.00133655 6251.88) (0.000252264 0.000252899 6251.23) (0.00158101 0.00158121 6250.8)
3700          (-0.0014229 -0.0014229 6256.36) (0.00109038 0.00109038 6256.26) (0.00126005 0.00126004 6255.94) (-0.0023551 -0.0023551 6255.46) (0.00277176 0.00277186 6254.89) (0.00129693 0.00129624 6254.18) (-0.00118669 -0.00118454 6253.4) (0.00223239 0.00223168 6252.65) (-0.0013369 -0.00133655 6251.88) (0.000252264 0.000252899 6251.23) (0.00158101 0.00158121 6250.8)
3750          (-0.0014229 -0.0014229 6256.36) (0.00109038 0.00109038 6256.26) (0.00126005 0.00126004 6255.94) (-0.0023551 -0.0023551 6255.46) (0.00277176 0.00277186 6254.89) (0.00129693 0.00129624 6254.18) (-0.00118669 -0.00118454 6253.4) (0.00223239 0.00223168 6252.65) (-0.0013369 -0.00133655 6251.88) (0.000252264 0.000252899 6251.23) (0.00158101 0.00158121 6250.8)
3800          (-0.0014229 -0.0014229 6256.36) (0.00109038 0.00109038 6256.26) (0.00126005 0.00126004 6255.94) (-0.0023551 -0.0023551 6255.46) (0.00277176 0.00277186 6254.89) (0.00129693 0.00129624 6254.18) (-0.00118669 -0.00118454 6253.4) (0.00223239 0.00223168 6252.65) (-0.0013369 -0.00133655 6251.88) (0.000252264 0.000252899 6251.23) (0.00158101 0.00158121 6250.8)
3850          (-0.0014229 -0.0014229 6256.36) (0.00109038 0.00109038 6256.26) (0.00126005 0.00126004 6255.94) (-0.0023551 -0.0023551 6255.46) (0.00277176 0.00277186 6254.89) (0.00129693 0.00129624 6254.18) (-0.00118669 -0.00118454 6253.4) (0.00223239 0.00223168 6252.65) (-0.0013369 -0.00133655 6251.88) (0.000252264 0.000252899 6251.23) (0.00158101 0.00158121 6250.8)
3900          (-0.0014229 -0.0014229 6256.36) (0.00109038 0.00109038 6256.26) (0.00126005 0.00126004 6255.94) (-0.0023551 -0.0023551 6255.46) (0.00277176 0.00277186 6254.89) (0.00129693 0.00129624 6254.18) (-0.00118669 -0.00118454 6253.4) (0.00223239 0.00223168 6252.65) (-0.0013369 -0.00133655 6251.88) (0.000252264 0.000252899 6251.23) (0.00158101 0.00158121 6250.8)
3950          (-0.0014229 -0.0014229 6256.36) (0.00109038 0.00109038 6256.26) (0.00126005 0.00126004 6255.94) (-0.0023551 -0.0023551 6255.46) (0.00277176 0.00277186 6254.89) (0.00129693 0.00129624 6254.18) (-0.00118669 -0.00118454 6253.4) (0.00223239 0.00223168 6252.65) (-0.0013369 -0.00133655 6251.88) (0.000252264 0.000252899 6251.23) (0.00158101 0.00158121 6250.8)