# Probe 0 (0.0015 0.0015 0)
# Probe 1 (0.0015 0.0015 0.002)
# Probe 2 (0.0015 0.0015 0.004)
# Probe 3 (0.0015 0.0015 0.006)
# Probe 4 (0.0015 0.0015 0.008)
# Probe 5 (0.0015 0.0015 0.01)
# Probe 6 (0.0015 0.0015 0.012)
# Probe 7 (0.0015 0.0015 0.014)
# Probe 8 (0.0015 0.0015 0.016)
# Probe 9 (0.0015 0.0015 0.018)
# Probe 10 (0.0015 0.0015 0.02)
# Time        0             1             2             3             4             5             6             7             8             9             10           
50            0.000660089   0.000660089   0.000660089   0.000660089   0.000660089   0.000660089   0.000530109   0.000530109   0.000530109   0.000530109   0.000530109  
100           0.000660089   0.000660089   0.000660089   0.000660089   0.000660089   0.000660089   0.000530109   0.000530109   0.000530109   0.000530109   0.000530109  
150           0.000660089   0.000660089   0.000660089   0.000660089   0.000660089   0.000660089   0.000530109   0.000530109   0.000530109   0.000530109   0.000530109  
200           0.000660089   0.000660089   0.000660089   0.000660089   0.000660089   0.000660089   0.000530109   0.000530109   0.000530109   0.000530109   0.000530109  
250           0.000660089   0.000660089   0.000660089   0.000660089   0.000660089   0.000660089   0.000530109   0.000530109   0.000530109   0.000530109   0.000530109  
300           0.000660089   0.000660089   0.000660089   0.000660089   0.000660089   0.000660089   0.000530109   0.000530109   0.000530109   0.000530109   0.000530109  
350           0.000660089   0.000660089   0.000660089   0.000660089   0.000660089   0.000660089   0.000530109   0.000530109   0.000530109   0.000530109   0.000530109  
400           0.000660089   0.000660089   0.000660089   0.000660089   0.000660089   0.000660089   0.000530109   0.000530109   0.000530109   0.000530109   0.000530109  
450           0.000660089   0.000660089   0.000660089   0.000660089   0.000660089   0.000660089   0.000530109   0.000530109   0.000530109   0.000530109   0.000530109  
500           0.000660089   0.000660089   0.000660089   0.000660089   0.000660089   0.000660089   0.000530109   0.000530109   0.000530109   0.000530109   0.000530109  
550           0.000660089   0.000660089   0.000660089   0.000660089   0.000660089   0.000660089   0.000530109   0.000530109   0.000530109   0.000530109   0.000530109  
600           0.000660089   0.000660089   0.000660089   0.000660089   0.000660089   0.000660089   0.000530109   0.000530109   0.000530109   0.000530109   0.000530109  
650           0.000660089   0.000660089   0.000660089   0.000660089   0.000660089   0.000660089   0.000530109   0.000530109   0.000530109   0.000530109   0.000530109  
700           0.000660089   0.000660089   0.000660089   0.000660089   0.000660089   0.000660089   0.000530109   0.000530109   0.000530109   0.000530109   0.000530109  
750           0.000660089   0.000660089   0.000660089   0.000660089   0.000660089   0.000660089   0.000530109   0.000530109   0.000530109   0.000530109   0.000530109  
800           0.000660089   0.000660089   0.000660089   0.000660089   0.000660089   0.000660089   0.000530109   0.000530109   0.000530109   0.000530109   0.000530109  
850           0.000660089   0.000660089   0.000660089   0.000660089   0.000660089   0.000660089   0.000530109   0.000530109   0.000530109   0.000530109   0.000530109  
900           0.000660089   0.000660089   0.000660089   0.000660089   0.000660089   0.000660089   0.000530109   0.000530109   0.000530109   0.000530109   0.000530109  
950           0.000660089   0.000660089   0.000660089   0.000660089   0.000660089   0.000660089   0.000530109   0.000530109   0.000530109   0.000530109   0.000530109  
1000          0.000660089   0.000660089   0.000660089   0.000660089   0.000660089   0.000660089   0.000530109   0.000530109   0.000530109   0.000530109   0.000530109  
1050          0.000660089   0.000660089   0.000660089   0.000660089   0.000660089   0.000660089   0.000530109   0.000530109   0.000530109   0.000530109   0.000530109  
1100          0.000660089   0.000660089   0.000660089   0.000660089   0.000660089   0.000660089   0.000530109   0.000530109   0.000530109   0.000530109   0.000530109  
1150          0.000660089   0.000660089   0.000660089   0.000660089   0.000660089   0.000660089   0.000530109   0.000530109   0.000530109   0.000530109   0.000530109  
1200          0.000660089   0.000660089   0.000660089   0.000660089   0.000660089   0.000660089   0.000530109   0.000530109   0.000530109   0.000530109   0.000530109  
1250          0.000660089   0.000660089   0.000660089   0.000660089   0.000660089   0.000660089   0.000530109   0.000530109   0.000530109   0.000530109   0.000530109  
1300          0.000660089   0.000660089   0.000660089   0.000660089   0.000660089   0.000660089   0.000530109   0.000530109   0.000530109   0.000530109   0.000530109  
1350          0.000660089   0.000660089   0.000660089   0.000660089   0.000660089   0.000660089   0.000530109   0.000530109   0.000530109   0.000530109   0.000530109  
1400          0.000660089   0.000660089   0.000660089   0.000660089   0.000660089   0.000660089   0.000530109   0.000530109   0.000530109   0.000530109   0.000530109  
1450          0.000660089   0.000660089   0.000660089   0.000660089   0.000660089   0.000660089   0.000530109   0.000530109   0.000530109   0.000530109   0.000530109  
1500          0.000660089   0.000660089   0.000660089   0.000660089   0.000660089   0.000660089   0.000530109   0.000530109   0.000530109   0.000530109   0.000530109  
1550          0.000660089   0.000660089   0.000660089   0.000660089   0.000660089   0.000660089   0.000530109   0.000530109   0.000530109   0.000530109   0.000530109  
1600          0.000660089   0.000660089   0.000660089   0.000660089   0.000660089   0.000660089   0.000530109   0.000530109   0.000530109   0.000530109   0.000530109  
1650          0.000660089   0.000660089   0.000660089   0.000660089   0.000660089   0.000660089   0.000530109   0.000530109   0.000530109   0.000530109   0.000530109  
1700          0.000660089   0.000660089   0.000660089   0.000660089   0.000660089   0.000660089   0.000530109   0.000530109   0.000530109   0.000530109   0.000530109  
1750          0.000660089   0.000660089   0.000660089   0.000660089   0.000660089   0.000660089   0.000530109   0.000530109   0.000530109   0.000530109   0.000530109  
1800          0.000660089   0.000660089   0.000660089   0.000660089   0.000660089   0.000660089   0.000530109   0.000530109   0.000530109   0.000530109   0.000530109  
1850          0.000660089   0.000660089   0.000660089   0.000660089   0.000660089   0.000660089   0.000530109   0.000530109   0.000530109   0.000530109   0.000530109  
1900          0.000660089   0.000660089   0.000660089   0.000660089   0.000660089   0.000660089   0.000530109   0.000530109   0.000530109   0.000530109   0.000530109  
1950          0.000660089   0.000660089   0.000660089   0.000660089   0.000660089   0.000660089   0.000530109   0.000530109   0.000530109   0.000530109   0.000530109  
2000          0.000660089   0.000660089   0.000660089   0.000660089   0.000660089   0.000660089   0.000530109   0.000530109   0.000530109   0.000530109   0.000530109  
2050          0.000660089   0.000660089   0.000660089   0.000660089   0.000660089   0.000660089   0.000530109   0.000530109   0.000530109   0.000530109   0.000530109  
2100          0.000660089   0.000660089   0.000660089   0.000660089   0.000660089   0.000660089   0.000530109   0.000530109   0.000530109   0.000530109   0.000530109  
2150          0.000660089   0.000660089   0.000660089   0.000660089   0.000660089   0.000660089   0.000530109   0.000530109   0.000530109   0.000530109   0.000530109  
2200          0.000660089   0.000660089   0.000660089   0.000660089   0.000660089   0.000660089   0.000530109   0.000530109   0.000530109   0.000530109   0.000530109  
2250          0.000660089   0.000660089   0.000660089   0.000660089   0.000660089   0.000660089   0.000530109   0.000530109   0.000530109   0.000530109   0.000530109  
2300          0.000660089   0.000660089   0.000660089   0.000660089   0.000660089   0.000660089   0.000530109   0.000530109   0.000530109   0.000530109   0.000530109  
2350          0.000660089   0.000660089   0.000660089   0.000660089   0.000660089   0.000660089   0.000530109   0.000530109   0.000530109   0.000530109   0.000530109  
2400          0.000660089   0.000660089   0.000660089   0.000660089   0.000660089   0.000660089   0.000530109   0.000530109   0.000530109   0.000530109   0.000530109  
2450          0.000660089   0.000660089   0.000660089   0.000660089   0.000660089   0.000660089   0.000530109   0.000530109   0.000530109   0.000530109   0.000530109  
2500          0.000660089   0.000660089   0.000660089   0.000660089   0.000660089   0.000660089   0.000530109   0.000530109   0.000530109   0.000530109   0.000530109  
2550          0.000660089   0.000660089   0.000660089   0.000660089   0.000660089   0.000660089   0.000530109   0.000530109   0.000530109   0.000530109   0.000530109  
2600          0.000660089   0.000660089   0.000660089   0.000660089   0.000660089   0.000660089   0.000530109   0.000530109   0.000530109   0.000530109   0.000530109  
2650          0.000660089   0.000660089   0.000660089   0.000660089   0.000660089   0.000660089   0.000530109   0.000530109   0.000530109   0.000530109   0.000530109  
2700          0.000660089   0.000660089   0.000660089   0.000660089   0.000660089   0.000660089   0.000530109   0.000530109   0.000530109   0.000530109   0.000530109  
2750          0.000660089   0.000660089   0.000660089   0.000660089   0.000660089   0.000660089   0.000530109   0.000530109   0.000530109   0.000530109   0.000530109  
2800          0.000660089   0.000660089   0.000660089   0.000660089   0.000660089   0.000660089   0.000530109   0.000530109   0.000530109   0.000530109   0.000530109  
2850          0.000660089   0.000660089   0.000660089   0.000660089   0.000660089   0.000660089   0.000530109   0.000530109   0.000530109   0.000530109   0.000530109  
2900          0.000660089   0.000660089   0.000660089   0.000660089   0.000660089   0.000660089   0.000530109   0.000530109   0.000530109   0.000530109   0.000530109  
2950          0.000660089   0.000660089   0.000660089   0.000660089   0.000660089   0.000660089   0.000530109   0.000530109   0.000530109   0.000530109   0.000530109  
3000          0.000660089   0.000660089   0.000660089   0.000660089   0.000660089   0.000660089   0.000530109   0.000530109   0.000530109   0.000530109   0.000530109  
3050          0.000660089   0.000660089   0.000660089   0.000660089   0.000660089   0.000660089   0.000530109   0.000530109   0.000530109   0.000530109   0.000530109  
3100          0.000660089   0.000660089   0.000660089   0.000660089   0.000660089   0.000660089   0.000530109   0.000530109   0.000530109   0.000530109   0.000530109  
3150          0.000660089   0.000660089   0.000660089   0.000660089   0.000660089   0.000660089   0.000530109   0.000530109   0.000530109   0.000530109   0.000530109  
3200          0.000660089   0.000660089   0.000660089   0.000660089   0.000660089   0.000660089   0.000530109   0.000530109   0.000530109   0.000530109   0.000530109  
3250          0.000660089   0.000660089   0.000660089   0.000660089   0.000660089   0.000660089   0.000530109   0.000530109   0.000530109   0.000530109   0.000530109  
3300          0.000660089   0.000660089   0.000660089   0.000660089   0.000660089   0.000660089   0.000530109   0.000530109   0.000530109   0.000530109   0.000530109  
3350          0.000660089   0.000660089   0.000660089   0.000660089   0.000660089   0.000660089   0.000530109   0.000530109   0.000530109   0.000530109   0.000530109  
3400          0.000660089   0.000660089   0.000660089   0.000660089   0.000660089   0.000660089   0.000530109   0.000530109   0.000530109   0.000530109   0.000530109  
3450          0.000660089   0.000660089   0.000660089   0.000660089   0.000660089   0.000660089   0.000530109   0.000530109   0.000530109   0.000530109   0.000530109  
3500          0.000660089   0.000660089   0.000660089   0.000660089   0.000660089   0.000660089   0.000530109   0.000530109   0.000530109   0.000530109   0.000530109  
3550          0.000660089   0.000660089   0.000660089   0.000660089   0.000660089   0.000660089   0.000530109   0.000530109   0.000530109   0.000530109   0.000530109  
3600          0.000660089   0.000660089   0.000660089   0.000660089   0.000660089   0.000660089   0.000530109   0.000530109   0.000530109   0.000530109   0.000530109  
3650          0.000660089   0.000660089   0.000660089   0.000660089   0.000660089   0.000660089   0.000530109   0.000530109   0.000530109   0.000530109   0.000530109  
3700          0.000660089   0.000660089   0.000660089   0.000660089   0.000660089   0.000660089   0.000530109   0.000530109   0.000530109   0.000530109   0.000530109  
3750          0.000660089   0.000660089   0.000660089   0.000660089   0.000660089   0.000660089   0.000530109   0.000530109   0.000530109   0.000530109   0.000530109  
3800          0.000660089   0.000660089   0.000660089   0.000660089   0.000660089   0.000660089   0.000530109   0.000530109   0.000530109   0.000530109   0.000530109  
3850          0.000660089   0.000660089   0.000660089   0.000660089   0.000660089   0.000660089   0.000530109   0.000530109   0.000530109   0.000530109   0.000530109  
3900          0.000660089   0.000660089   0.000660089   0.000660089   0.000660089   0.000660089   0.000530109   0.000530109   0.000530109   0.000530109   0.000530109  
3950          0.000660089   0.000660089   0.000660089   0.000660089   0.000660089   0.000660089   0.000530109   0.000530109   0.000530109   0.000530109   0.000530109  
4000          0.000660089   0.000660089   0.000660089   0.000660089   0.000660089   0.000660089   0.000530109   0.000530109   0.000530109   0.000530109   0.000530109  
4050          0.000660089   0.000660089   0.000660089   0.000660089   0.000660089   0.000660089   0.000530109   0.000530109   0.000530109   0.000530109   0.000530109  
4100          0.000660089   0.000660089   0.000660089   0.000660089   0.000660089   0.000660089   0.000530109   0.000530109   0.000530109   0.000530109   0.000530109  
4150          0.000660089   0.000660089   0.000660089   0.000660089   0.000660089   0.000660089   0.000530109   0.000530109   0.000530109   0.000530109   0.000530109  
4200          0.000660089   0.000660089   0.000660089   0.000660089   0.000660089   0.000660089   0.000530109   0.000530109   0.000530109   0.000530109   0.000530109  
4250          0.000660089   0.000660089   0.000660089   0.000660089   0.000660089   0.000660089   0.000530109   0.000530109   0.000530109   0.000530109   0.000530109  
4300          0.000660089   0.000660089   0.000660089   0.000660089   0.000660089   0.000660089   0.000530109   0.000530109   0.000530109   0.000530109   0.000530109  
4350          0.000660089   0.000660089   0.000660089   0.000660089   0.000660089   0.000660089   0.000530109   0.000530109   0.000530109   0.000530109   0.000530109  
4400          0.000660089   0.000660089   0.000660089   0.000660089   0.000660089   0.000660089   0.000530109   0.000530109   0.000530109   0.000530109   0.000530109  
4450          0.000660089   0.000660089   0.000660089   0.000660089   0.000660089   0.000660089   0.000530109   0.000530109   0.000530109   0.000530109   0.000530109  
4500          0.000660089   0.000660089   0.000660089   0.000660089   0.000660089   0.000660089   0.000530109   0.000530109   0.000530109   0.000530109   0.000530109  
4550          0.000660089   0.000660089   0.000660089   0.000660089   0.000660089   0.000660089   0.000530109   0.000530109   0.000530109   0.000530109   0.000530109  
4600          0.000660089   0.000660089   0.000660089   0.000660089   0.000660089   0.000660089   0.000530109   0.000530109   0.000530109   0.000530109   0.000530109  
4650          0.000660089   0.000660089   0.000660089   0.000660089   0.000660089   0.000660089   0.000530109   0.000530109   0.000530109   0.000530109   0.000530109  
4700          0.000660089   0.000660089   0.000660089   0.000660089   0.000660089   0.000660089   0.000530109   0.000530109   0.000530109   0.000530109   0.000530109  
4750          0.000660089   0.000660089   0.000660089   0.000660089   0.000660089   0.000660089   0.000530109   0.000530109   0.000530109   0.000530109   0.000530109  
4800          0.000660089   0.000660089   0.000660089   0.000660089   0.000660089   0.000660089   0.000530109   0.000530109   0.000530109   0.000530109   0.000530109  
4850          0.000660089   0.000660089   0.000660089   0.000660089   0.000660089   0.000660089   0.000530109   0.000530109   0.000530109   0.000530109   0.000530109  
4900          0.000660089   0.000660089   0.000660089   0.000660089   0.000660089   0.000660089   0.000530109   0.000530109   0.000530109   0.000530109   0.000530109  
4950          0.000660089   0.000660089   0.000660089   0.000660089   0.000660089   0.000660089   0.000530109   0.000530109   0.000530109   0.000530109   0.000530109  
5000          0.000660089   0.000660089   0.000660089   0.000660089   0.000660089   0.000660089   0.000530109   0.000530109   0.000530109   0.000530109   0.000530109  
