# Probe 0 (0.0015 0.0015 0)
# Probe 1 (0.0015 0.0015 0.002)
# Probe 2 (0.0015 0.0015 0.004)
# Probe 3 (0.0015 0.0015 0.006)
# Probe 4 (0.0015 0.0015 0.008)
# Probe 5 (0.0015 0.0015 0.01)
# Probe 6 (0.0015 0.0015 0.012)
# Probe 7 (0.0015 0.0015 0.014)
# Probe 8 (0.0015 0.0015 0.016)
# Probe 9 (0.0015 0.0015 0.018)
# Probe 10 (0.0015 0.0015 0.02)
# Time        0             1             2             3             4             5             6             7             8             9             10           
50            72608.7       72608.7       72608.7       12024.9       12024.9       2667.24       2667.24       1647.73       1647.73       3503.17       3503.17      
100           114195        114195        114195        25737.2       25737.2       4934.23       4934.23       2115.51       2115.51       4072.7        4072.7       
150           137181        137181        137181        44599.2       44599.2       8935.77       8935.77       2913.75       2913.75       4745.64       4745.64      
200           149711        149711        149711        63350.8       63350.8       15195.7       15195.7       4218.05       4218.05       5517.76       5517.76      
250           158328        158328        158328        79049.8       79049.8       23932.3       23932.3       6294.85       6294.85       6436.86       6436.86      
300           164741        164741        164741        91131.6       91131.6       34248.8       34248.8       9431.93       9431.93       7596.03       7596.03      
350           169649        169649        169649        100640        100640        44948.9       44948.9       13903.3       13903.3       9129.86       9129.86      
400           173645        173645        173645        108619        108619        55188.7       55188.7       19789         19789         11193         11193        
450           177067        177067        177067        115565        115565        64574.6       64574.6       26840.9       26840.9       13912.2       13912.2      
500           180069        180069        180069        121709        121709        73107.4       73107.4       34551.6       34551.6       17316.4       17316.4      
550           182742        182742        182742        127212        127212        80898.5       80898.5       42317         42317         21263.1       21263.1      
600           185144        185144        185144        132168        132168        87969.8       87969.8       49620.9       49620.9       25442.8       25442.8      
650           187294        187294        187294        136596        136596        94268.4       94268.4       56147.2       56147.2       29494.8       29494.8      
700           189191        189191        189191        140482        140482        99744.8       99744.8       61766.7       61766.7       33141.6       33141.6      
750           190829        190829        190829        143818        143818        104392        104392        66470.6       66470.6       36244.4       36244.4      
800           192213        192213        192213        146618        146618        108250        108250        70319.6       70319.6       38782.6       38782.6      
850           193357        193357        193357        148921        148921        111389        111389        73409.9       73409.9       40803.9       40803.9      
900           194287        194287        194287        150781        150781        113902        113902        75854.3       75854.3       42386.3       42386.3      
950           195031        195031        195031        152262        152262        115886        115886        77765.7       77765.7       43611.2       43611.2      
1000          195617        195617        195617        153426        153426        117436        117436        79247         79247         44552.5       44552.5      
1050          196075        196075        196075        154331        154331        118637        118637        80387.5       80387.5       45272.3       45272.3      
1100          196429        196429        196429        155031        155031        119561        119561        81261.1       81261.1       45820.8       45820.8      
1150          196701        196701        196701        155568        155568        120269        120269        81927.8       81927.8       46237.7       46237.7      
1200          196910        196910        196910        155979        155979        120809        120809        82435.2       82435.2       46554.2       46554.2      
1250          197069        197069        197069        156292        156292        121220        121220        82820.4       82820.4       46793.9       46793.9      
1300          197190        197190        197190        156530        156530        121532        121532        83112.5       83112.5       46975.4       46975.4      
1350          197282        197282        197282        156710        156710        121769        121769        83333.8       83333.8       47112.8       47112.8      
1400          197351        197351        197351        156847        156847        121947        121947        83500.9       83500.9       47216.4       47216.4      
1450          197404        197404        197404        156950        156950        122083        122083        83627.5       83627.5       47294.8       47294.8      
1500          197444        197444        197444        157028        157028        122185        122185        83722.7       83722.7       47353.8       47353.8      
1550          197474        197474        197474        157087        157087        122262        122262        83794.7       83794.7       47398.4       47398.4      
1600          197496        197496        197496        157131        157131        122320        122320        83848.7       83848.7       47431.9       47431.9      
1650          197513        197513        197513        157164        157164        122363        122363        83889         83889         47456.9       47456.9      
1700          197525        197525        197525        157188        157188        122394        122394        83918.5       83918.5       47475.2       47475.2      
1750          197535        197535        197535        157207        157207        122419        122419        83941.9       83941.9       47489.7       47489.7      
1800          197542        197542        197542        157221        157221        122437        122437        83958.9       83958.9       47500.2       47500.2      
1850          197547        197547        197547        157232        157232        122451        122451        83971.7       83971.7       47508.2       47508.2      
1900          197551        197551        197551        157240        157240        122462        122462        83981.7       83981.7       47514.4       47514.4      
1950          197554        197554        197554        157246        157246        122470        122470        83988.9       83988.9       47518.9       47518.9      
2000          197556        197556        197556        157250        157250        122475        122475        83993.7       83993.7       47521.8       47521.8      
2050          197558        197558        197558        157254        157254        122480        122480        83998.5       83998.5       47524.8       47524.8      
2100          197559        197559        197559        157255        157255        122482        122482        84000.9       84000.9       47526.3       47526.3      
2150          197560        197560        197560        157257        157257        122485        122485        84003.3       84003.3       47527.9       47527.9      
2200          197561        197561        197561        157258        157258        122486        122486        84004.6       84004.6       47528.8       47528.8      
2250          197561        197561        197561        157258        157258        122486        122486        84004.6       84004.6       47528.8       47528.8      
2300          197561        197561        197561        157259        157259        122487        122487        84005.8       84005.8       47529.5       47529.5      
2350          197561        197561        197561        157259        157259        122487        122487        84005.8       84005.8       47529.5       47529.5      
2400          197561        197561        197561        157259        157259        122487        122487        84005.8       84005.8       47529.5       47529.5      
2450          197561        197561        197561        157259        157259        122487        122487        84005.8       84005.8       47529.5       47529.5      
2500          197561        197561        197561        157259        157259        122487        122487        84005.8       84005.8       47529.5       47529.5      
2550          197561        197561        197561        157259        157259        122487        122487        84005.8       84005.8       47529.5       47529.5      
2600          197561        197561        197561        157259        157259        122487        122487        84005.8       84005.8       47529.5       47529.5      
2650          197561        197561        197561        157259        157259        122487        122487        84005.8       84005.8       47529.5       47529.5      
2700          197561        197561        197561        157259        157259        122487        122487        84005.8       84005.8       47529.5       47529.5      
2750          197561        197561        197561        157259        157259        122487        122487        84005.8       84005.8       47529.5       47529.5      
2800          197561        197561        197561        157259        157259        122487        122487        84005.8       84005.8       47529.5       47529.5      
2850          197561        197561        197561        157259        157259        122487        122487        84005.8       84005.8       47529.5       47529.5      
2900          197561        197561        197561        157259        157259        122487        122487        84005.8       84005.8       47529.5       47529.5      
2950          197561        197561        197561        157259        157259        122487        122487        84005.8       84005.8       47529.5       47529.5      
3000          197561        197561        197561        157259        157259        122487        122487        84005.8       84005.8       47529.5       47529.5      
3050          197561        197561        197561        157259        157259        122487        122487        84005.8       84005.8       47529.5       47529.5      
3100          197561        197561        197561        157259        157259        122487        122487        84005.8       84005.8       47529.5       47529.5      
3150          197561        197561        197561        157259        157259        122487        122487        84005.8       84005.8       47529.5       47529.5      
3200          197561        197561        197561        157259        157259        122487        122487        84005.8       84005.8       47529.5       47529.5      
3250          197561        197561        197561        157259        157259        122487        122487        84005.8       84005.8       47529.5       47529.5      
3300          197561        197561        197561        157259        157259        122487        122487        84005.8       84005.8       47529.5       47529.5      
3350          197561        197561        197561        157259        157259        122487        122487        84005.8       84005.8       47529.5       47529.5      
3400          197561        197561        197561        157259        157259        122487        122487        84005.8       84005.8       47529.5       47529.5      
3450          197561        197561        197561        157259        157259        122487        122487        84005.8       84005.8       47529.5       47529.5      
3500          197561        197561        197561        157259        157259        122487        122487        84005.8       84005.8       47529.5       47529.5      
3550          197561        197561        197561        157259        157259        122487        122487        84005.8       84005.8       47529.5       47529.5      
3600          197561        197561        197561        157259        157259        122487        122487        84005.8       84005.8       47529.5       47529.5      
3650          197561        197561        197561        157259        157259        122487        122487        84005.8       84005.8       47529.5       47529.5      
3700          197561        197561        197561        157259        157259        122487        122487        84005.8       84005.8       47529.5       47529.5      
3750          197561        197561        197561        157259        157259        122487        122487        84005.8       84005.8       47529.5       47529.5      
3800          197561        197561        197561        157259        157259        122487        122487        84005.8       84005.8       47529.5       47529.5      
3850          197561        197561        197561        157259        157259        122487        122487        84005.8       84005.8       47529.5       47529.5      
3900          197561        197561        197561        157259        157259        122487        122487        84005.8       84005.8       47529.5       47529.5      
3950          197561        197561        197561        157259        157259        122487        122487        84005.8       84005.8       47529.5       47529.5      
4000          197561        197561        197561        157259        157259        122487        122487        84005.8       84005.8       47529.5       47529.5      
4050          197561        197561        197561        157259        157259        122487        122487        84005.8       84005.8       47529.5       47529.5      
4100          197561        197561        197561        157259        157259        122487        122487        84005.8       84005.8       47529.5       47529.5      
4150          197561        197561        197561        157259        157259        122487        122487        84005.8       84005.8       47529.5       47529.5      
4200          197561        197561        197561        157259        157259        122487        122487        84005.8       84005.8       47529.5       47529.5      
4250          197561        197561        197561        157259        157259        122487        122487        84005.8       84005.8       47529.5       47529.5      
4300          197561        197561        197561        157259        157259        122487        122487        84005.8       84005.8       47529.5       47529.5      
4350          197561        197561        197561        157259        157259        122487        122487        84005.8       84005.8       47529.5       47529.5      
4400          197561        197561        197561        157259        157259        122487        122487        84005.8       84005.8       47529.5       47529.5      
4450          197561        197561        197561        157259        157259        122487        122487        84005.8       84005.8       47529.5       47529.5      
4500          197561        197561        197561        157259        157259        122487        122487        84005.8       84005.8       47529.5       47529.5      
4550          197561        197561        197561        157259        157259        122487        122487        84005.8       84005.8       47529.5       47529.5      
4600          197561        197561        197561        157259        157259        122487        122487        84005.8       84005.8       47529.5       47529.5      
4650          197561        197561        197561        157259        157259        122487        122487        84005.8       84005.8       47529.5       47529.5      
4700          197561        197561        197561        157259        157259        122487        122487        84005.8       84005.8       47529.5       47529.5      
4750          197561        197561        197561        157259        157259        122487        122487        84005.8       84005.8       47529.5       47529.5      
4800          197561        197561        197561        157259        157259        122487        122487        84005.8       84005.8       47529.5       47529.5      
4850          197561        197561        197561        157259        157259        122487        122487        84005.8       84005.8       47529.5       47529.5      
4900          197561        197561        197561        157259        157259        122487        122487        84005.8       84005.8       47529.5       47529.5      
4950          197561        197561        197561        157259        157259        122487        122487        84005.8       84005.8       47529.5       47529.5      
5000          197561        197561        197561        157259        157259        122487        122487        84005.8       84005.8       47529.5       47529.5      
