# Probe 0 (0.0015 0.0015 0)
# Probe 1 (0.0015 0.0015 0.002)
# Probe 2 (0.0015 0.0015 0.004)
# Probe 3 (0.0015 0.0015 0.006)
# Probe 4 (0.0015 0.0015 0.008)
# Probe 5 (0.0015 0.0015 0.01)
# Probe 6 (0.0015 0.0015 0.012)
# Probe 7 (0.0015 0.0015 0.014)
# Probe 8 (0.0015 0.0015 0.016)
# Probe 9 (0.0015 0.0015 0.018)
# Probe 10 (0.0015 0.0015 0.02)
# Time        0             1             2             3             4             5             6             7             8             9             10           
50            0.000673418   0.000673418   0.000673418   0.000668894   0.000668894   0.000645524   0.000645524   0.000653247   0.000653247   0.000660668   0.000660668  
100           0.000673418   0.000673418   0.000673418   0.000668894   0.000668894   0.000645524   0.000645524   0.000653247   0.000653247   0.000660668   0.000660668  
150           0.000673418   0.000673418   0.000673418   0.000668894   0.000668894   0.000645524   0.000645524   0.000653247   0.000653247   0.000660668   0.000660668  
200           0.000673418   0.000673418   0.000673418   0.000668894   0.000668894   0.000645524   0.000645524   0.000653247   0.000653247   0.000660668   0.000660668  
250           0.000673418   0.000673418   0.000673418   0.000668894   0.000668894   0.000645524   0.000645524   0.000653247   0.000653247   0.000660668   0.000660668  
300           0.000673418   0.000673418   0.000673418   0.000668894   0.000668894   0.000645524   0.000645524   0.000653247   0.000653247   0.000660668   0.000660668  
350           0.000673418   0.000673418   0.000673418   0.000668894   0.000668894   0.000645524   0.000645524   0.000653247   0.000653247   0.000660668   0.000660668  
400           0.000673418   0.000673418   0.000673418   0.000668894   0.000668894   0.000645524   0.000645524   0.000653247   0.000653247   0.000660668   0.000660668  
450           0.000673418   0.000673418   0.000673418   0.000668894   0.000668894   0.000645524   0.000645524   0.000653247   0.000653247   0.000660668   0.000660668  
500           0.000673418   0.000673418   0.000673418   0.000668894   0.000668894   0.000645524   0.000645524   0.000653247   0.000653247   0.000660668   0.000660668  
550           0.000673418   0.000673418   0.000673418   0.000668894   0.000668894   0.000645524   0.000645524   0.000653247   0.000653247   0.000660668   0.000660668  
600           0.000673418   0.000673418   0.000673418   0.000668894   0.000668894   0.000645524   0.000645524   0.000653247   0.000653247   0.000660668   0.000660668  
650           0.000673418   0.000673418   0.000673418   0.000668894   0.000668894   0.000645524   0.000645524   0.000653247   0.000653247   0.000660668   0.000660668  
700           0.000673418   0.000673418   0.000673418   0.000668894   0.000668894   0.000645524   0.000645524   0.000653247   0.000653247   0.000660668   0.000660668  
750           0.000673418   0.000673418   0.000673418   0.000668894   0.000668894   0.000645524   0.000645524   0.000653247   0.000653247   0.000660668   0.000660668  
800           0.000673418   0.000673418   0.000673418   0.000668894   0.000668894   0.000645524   0.000645524   0.000653247   0.000653247   0.000660668   0.000660668  
850           0.000673418   0.000673418   0.000673418   0.000668894   0.000668894   0.000645524   0.000645524   0.000653247   0.000653247   0.000660668   0.000660668  
900           0.000673418   0.000673418   0.000673418   0.000668894   0.000668894   0.000645524   0.000645524   0.000653247   0.000653247   0.000660668   0.000660668  
950           0.000673418   0.000673418   0.000673418   0.000668894   0.000668894   0.000645524   0.000645524   0.000653247   0.000653247   0.000660668   0.000660668  
1000          0.000673418   0.000673418   0.000673418   0.000668894   0.000668894   0.000645524   0.000645524   0.000653247   0.000653247   0.000660668   0.000660668  
1050          0.000673418   0.000673418   0.000673418   0.000668894   0.000668894   0.000645524   0.000645524   0.000653247   0.000653247   0.000660668   0.000660668  
1100          0.000673418   0.000673418   0.000673418   0.000668894   0.000668894   0.000645524   0.000645524   0.000653247   0.000653247   0.000660668   0.000660668  
1150          0.000673418   0.000673418   0.000673418   0.000668894   0.000668894   0.000645524   0.000645524   0.000653247   0.000653247   0.000660668   0.000660668  
1200          0.000673418   0.000673418   0.000673418   0.000668894   0.000668894   0.000645524   0.000645524   0.000653247   0.000653247   0.000660668   0.000660668  
1250          0.000673418   0.000673418   0.000673418   0.000668894   0.000668894   0.000645524   0.000645524   0.000653247   0.000653247   0.000660668   0.000660668  
1300          0.000673418   0.000673418   0.000673418   0.000668894   0.000668894   0.000645524   0.000645524   0.000653247   0.000653247   0.000660668   0.000660668  
1350          0.000673418   0.000673418   0.000673418   0.000668894   0.000668894   0.000645524   0.000645524   0.000653247   0.000653247   0.000660668   0.000660668  
1400          0.000673418   0.000673418   0.000673418   0.000668894   0.000668894   0.000645524   0.000645524   0.000653247   0.000653247   0.000660668   0.000660668  
1450          0.000673418   0.000673418   0.000673418   0.000668894   0.000668894   0.000645524   0.000645524   0.000653247   0.000653247   0.000660668   0.000660668  
1500          0.000673418   0.000673418   0.000673418   0.000668894   0.000668894   0.000645524   0.000645524   0.000653247   0.000653247   0.000660668   0.000660668  
1550          0.000673418   0.000673418   0.000673418   0.000668894   0.000668894   0.000645524   0.000645524   0.000653247   0.000653247   0.000660668   0.000660668  
1600          0.000673418   0.000673418   0.000673418   0.000668894   0.000668894   0.000645524   0.000645524   0.000653247   0.000653247   0.000660668   0.000660668  
1650          0.000673418   0.000673418   0.000673418   0.000668894   0.000668894   0.000645524   0.000645524   0.000653247   0.000653247   0.000660668   0.000660668  
1700          0.000673418   0.000673418   0.000673418   0.000668894   0.000668894   0.000645524   0.000645524   0.000653247   0.000653247   0.000660668   0.000660668  
1750          0.000673418   0.000673418   0.000673418   0.000668894   0.000668894   0.000645524   0.000645524   0.000653247   0.000653247   0.000660668   0.000660668  
1800          0.000673418   0.000673418   0.000673418   0.000668894   0.000668894   0.000645524   0.000645524   0.000653247   0.000653247   0.000660668   0.000660668  
1850          0.000673418   0.000673418   0.000673418   0.000668894   0.000668894   0.000645524   0.000645524   0.000653247   0.000653247   0.000660668   0.000660668  
1900          0.000673418   0.000673418   0.000673418   0.000668894   0.000668894   0.000645524   0.000645524   0.000653247   0.000653247   0.000660668   0.000660668  
1950          0.000673418   0.000673418   0.000673418   0.000668894   0.000668894   0.000645524   0.000645524   0.000653247   0.000653247   0.000660668   0.000660668  
2000          0.000673418   0.000673418   0.000673418   0.000668894   0.000668894   0.000645524   0.000645524   0.000653247   0.000653247   0.000660668   0.000660668  
2050          0.000673418   0.000673418   0.000673418   0.000668894   0.000668894   0.000645524   0.000645524   0.000653247   0.000653247   0.000660668   0.000660668  
2100          0.000673418   0.000673418   0.000673418   0.000668894   0.000668894   0.000645524   0.000645524   0.000653247   0.000653247   0.000660668   0.000660668  
2150          0.000673418   0.000673418   0.000673418   0.000668894   0.000668894   0.000645524   0.000645524   0.000653247   0.000653247   0.000660668   0.000660668  
2200          0.000673418   0.000673418   0.000673418   0.000668894   0.000668894   0.000645524   0.000645524   0.000653247   0.000653247   0.000660668   0.000660668  
2250          0.000673418   0.000673418   0.000673418   0.000668894   0.000668894   0.000645524   0.000645524   0.000653247   0.000653247   0.000660668   0.000660668  
2300          0.000673418   0.000673418   0.000673418   0.000668894   0.000668894   0.000645524   0.000645524   0.000653247   0.000653247   0.000660668   0.000660668  
2350          0.000673418   0.000673418   0.000673418   0.000668894   0.000668894   0.000645524   0.000645524   0.000653247   0.000653247   0.000660668   0.000660668  
2400          0.000673418   0.000673418   0.000673418   0.000668894   0.000668894   0.000645524   0.000645524   0.000653247   0.000653247   0.000660668   0.000660668  
2450          0.000673418   0.000673418   0.000673418   0.000668894   0.000668894   0.000645524   0.000645524   0.000653247   0.000653247   0.000660668   0.000660668  
2500          0.000673418   0.000673418   0.000673418   0.000668894   0.000668894   0.000645524   0.000645524   0.000653247   0.000653247   0.000660668   0.000660668  
2550          0.000673418   0.000673418   0.000673418   0.000668894   0.000668894   0.000645524   0.000645524   0.000653247   0.000653247   0.000660668   0.000660668  
2600          0.000673418   0.000673418   0.000673418   0.000668894   0.000668894   0.000645524   0.000645524   0.000653247   0.000653247   0.000660668   0.000660668  
2650          0.000673418   0.000673418   0.000673418   0.000668894   0.000668894   0.000645524   0.000645524   0.000653247   0.000653247   0.000660668   0.000660668  
2700          0.000673418   0.000673418   0.000673418   0.000668894   0.000668894   0.000645524   0.000645524   0.000653247   0.000653247   0.000660668   0.000660668  
2750          0.000673418   0.000673418   0.000673418   0.000668894   0.000668894   0.000645524   0.000645524   0.000653247   0.000653247   0.000660668   0.000660668  
2800          0.000673418   0.000673418   0.000673418   0.000668894   0.000668894   0.000645524   0.000645524   0.000653247   0.000653247   0.000660668   0.000660668  
2850          0.000673418   0.000673418   0.000673418   0.000668894   0.000668894   0.000645524   0.000645524   0.000653247   0.000653247   0.000660668   0.000660668  
2900          0.000673418   0.000673418   0.000673418   0.000668894   0.000668894   0.000645524   0.000645524   0.000653247   0.000653247   0.000660668   0.000660668  
2950          0.000673418   0.000673418   0.000673418   0.000668894   0.000668894   0.000645524   0.000645524   0.000653247   0.000653247   0.000660668   0.000660668  
3000          0.000673418   0.000673418   0.000673418   0.000668894   0.000668894   0.000645524   0.000645524   0.000653247   0.000653247   0.000660668   0.000660668  
3050          0.000673418   0.000673418   0.000673418   0.000668894   0.000668894   0.000645524   0.000645524   0.000653247   0.000653247   0.000660668   0.000660668  
3100          0.000673418   0.000673418   0.000673418   0.000668894   0.000668894   0.000645524   0.000645524   0.000653247   0.000653247   0.000660668   0.000660668  
3150          0.000673418   0.000673418   0.000673418   0.000668894   0.000668894   0.000645524   0.000645524   0.000653247   0.000653247   0.000660668   0.000660668  
3200          0.000673418   0.000673418   0.000673418   0.000668894   0.000668894   0.000645524   0.000645524   0.000653247   0.000653247   0.000660668   0.000660668  
3250          0.000673418   0.000673418   0.000673418   0.000668894   0.000668894   0.000645524   0.000645524   0.000653247   0.000653247   0.000660668   0.000660668  
3300          0.000673418   0.000673418   0.000673418   0.000668894   0.000668894   0.000645524   0.000645524   0.000653247   0.000653247   0.000660668   0.000660668  
3350          0.000673418   0.000673418   0.000673418   0.000668894   0.000668894   0.000645524   0.000645524   0.000653247   0.000653247   0.000660668   0.000660668  
3400          0.000673418   0.000673418   0.000673418   0.000668894   0.000668894   0.000645524   0.000645524   0.000653247   0.000653247   0.000660668   0.000660668  
3450          0.000673418   0.000673418   0.000673418   0.000668894   0.000668894   0.000645524   0.000645524   0.000653247   0.000653247   0.000660668   0.000660668  
3500          0.000673418   0.000673418   0.000673418   0.000668894   0.000668894   0.000645524   0.000645524   0.000653247   0.000653247   0.000660668   0.000660668  
3550          0.000673418   0.000673418   0.000673418   0.000668894   0.000668894   0.000645524   0.000645524   0.000653247   0.000653247   0.000660668   0.000660668  
3600          0.000673418   0.000673418   0.000673418   0.000668894   0.000668894   0.000645524   0.000645524   0.000653247   0.000653247   0.000660668   0.000660668  
3650          0.000673418   0.000673418   0.000673418   0.000668894   0.000668894   0.000645524   0.000645524   0.000653247   0.000653247   0.000660668   0.000660668  
3700          0.000673418   0.000673418   0.000673418   0.000668894   0.000668894   0.000645524   0.000645524   0.000653247   0.000653247   0.000660668   0.000660668  
3750          0.000673418   0.000673418   0.000673418   0.000668894   0.000668894   0.000645524   0.000645524   0.000653247   0.000653247   0.000660668   0.000660668  
3800          0.000673418   0.000673418   0.000673418   0.000668894   0.000668894   0.000645524   0.000645524   0.000653247   0.000653247   0.000660668   0.000660668  
3850          0.000673418   0.000673418   0.000673418   0.000668894   0.000668894   0.000645524   0.000645524   0.000653247   0.000653247   0.000660668   0.000660668  
3900          0.000673418   0.000673418   0.000673418   0.000668894   0.000668894   0.000645524   0.000645524   0.000653247   0.000653247   0.000660668   0.000660668  
3950          0.000673418   0.000673418   0.000673418   0.000668894   0.000668894   0.000645524   0.000645524   0.000653247   0.000653247   0.000660668   0.000660668  
4000          0.000673418   0.000673418   0.000673418   0.000668894   0.000668894   0.000645524   0.000645524   0.000653247   0.000653247   0.000660668   0.000660668  
4050          0.000673418   0.000673418   0.000673418   0.000668894   0.000668894   0.000645524   0.000645524   0.000653247   0.000653247   0.000660668   0.000660668  
4100          0.000673418   0.000673418   0.000673418   0.000668894   0.000668894   0.000645524   0.000645524   0.000653247   0.000653247   0.000660668   0.000660668  
4150          0.000673418   0.000673418   0.000673418   0.000668894   0.000668894   0.000645524   0.000645524   0.000653247   0.000653247   0.000660668   0.000660668  
4200          0.000673418   0.000673418   0.000673418   0.000668894   0.000668894   0.000645524   0.000645524   0.000653247   0.000653247   0.000660668   0.000660668  
4250          0.000673418   0.000673418   0.000673418   0.000668894   0.000668894   0.000645524   0.000645524   0.000653247   0.000653247   0.000660668   0.000660668  
4300          0.000673418   0.000673418   0.000673418   0.000668894   0.000668894   0.000645524   0.000645524   0.000653247   0.000653247   0.000660668   0.000660668  
4350          0.000673418   0.000673418   0.000673418   0.000668894   0.000668894   0.000645524   0.000645524   0.000653247   0.000653247   0.000660668   0.000660668  
4400          0.000673418   0.000673418   0.000673418   0.000668894   0.000668894   0.000645524   0.000645524   0.000653247   0.000653247   0.000660668   0.000660668  
4450          0.000673418   0.000673418   0.000673418   0.000668894   0.000668894   0.000645524   0.000645524   0.000653247   0.000653247   0.000660668   0.000660668  
4500          0.000673418   0.000673418   0.000673418   0.000668894   0.000668894   0.000645524   0.000645524   0.000653247   0.000653247   0.000660668   0.000660668  
4550          0.000673418   0.000673418   0.000673418   0.000668894   0.000668894   0.000645524   0.000645524   0.000653247   0.000653247   0.000660668   0.000660668  
4600          0.000673418   0.000673418   0.000673418   0.000668894   0.000668894   0.000645524   0.000645524   0.000653247   0.000653247   0.000660668   0.000660668  
4650          0.000673418   0.000673418   0.000673418   0.000668894   0.000668894   0.000645524   0.000645524   0.000653247   0.000653247   0.000660668   0.000660668  
4700          0.000673418   0.000673418   0.000673418   0.000668894   0.000668894   0.000645524   0.000645524   0.000653247   0.000653247   0.000660668   0.000660668  
4750          0.000673418   0.000673418   0.000673418   0.000668894   0.000668894   0.000645524   0.000645524   0.000653247   0.000653247   0.000660668   0.000660668  
4800          0.000673418   0.000673418   0.000673418   0.000668894   0.000668894   0.000645524   0.000645524   0.000653247   0.000653247   0.000660668   0.000660668  
4850          0.000673418   0.000673418   0.000673418   0.000668894   0.000668894   0.000645524   0.000645524   0.000653247   0.000653247   0.000660668   0.000660668  
4900          0.000673418   0.000673418   0.000673418   0.000668894   0.000668894   0.000645524   0.000645524   0.000653247   0.000653247   0.000660668   0.000660668  
4950          0.000673418   0.000673418   0.000673418   0.000668894   0.000668894   0.000645524   0.000645524   0.000653247   0.000653247   0.000660668   0.000660668  
5000          0.000673418   0.000673418   0.000673418   0.000668894   0.000668894   0.000645524   0.000645524   0.000653247   0.000653247   0.000660668   0.000660668  
