# Probe 0 (0.0015 0.0015 0)
# Probe 1 (0.0015 0.0015 0.01)
# Probe 2 (0.0015 0.0015 0.02)
# Probe 3 (0.0015 0.0015 0.03)
# Probe 4 (0.0015 0.0015 0.04)
# Probe 5 (0.0015 0.0015 0.05)
# Probe 6 (0.0015 0.0015 0.06)
# Probe 7 (0.0015 0.0015 0.07)
# Probe 8 (0.0015 0.0015 0.08)
# Probe 9 (0.0015 0.0015 0.09)
# Probe 10 (0.0015 0.0015 0.1)
# Time        0             1             2             3             4             5             6             7             8             9             10           
50            161660        161660        161660        161660        161660        161660        62355.9       62355.9       62355.9       62355.9       62355.9      
100           168602        168602        168602        168602        168602        168602        65864.6       65864.6       65864.6       65864.6       65864.6      
150           169365        169365        169365        169365        169365        169365        66787         66787         66787         66787         66787        
200           169519        169519        169519        169519        169519        169519        67024.2       67024.2       67024.2       67024.2       67024.2      
250           169555        169555        169555        169555        169555        169555        67089.3       67089.3       67089.3       67089.3       67089.3      
300           169564        169564        169564        169564        169564        169564        67107.4       67107.4       67107.4       67107.4       67107.4      
350           169566        169566        169566        169566        169566        169566        67111.9       67111.9       67111.9       67111.9       67111.9      
400           169568        169568        169568        169568        169568        169568        67113.6       67113.6       67113.6       67113.6       67113.6      
450           169568        169568        169568        169568        169568        169568        67113.6       67113.6       67113.6       67113.6       67113.6      
500           169568        169568        169568        169568        169568        169568        67113.6       67113.6       67113.6       67113.6       67113.6      
550           169568        169568        169568        169568        169568        169568        67113.6       67113.6       67113.6       67113.6       67113.6      
600           169568        169568        169568        169568        169568        169568        67113.6       67113.6       67113.6       67113.6       67113.6      
650           169568        169568        169568        169568        169568        169568        67113.6       67113.6       67113.6       67113.6       67113.6      
700           169568        169568        169568        169568        169568        169568        67113.6       67113.6       67113.6       67113.6       67113.6      
750           169568        169568        169568        169568        169568        169568        67113.6       67113.6       67113.6       67113.6       67113.6      
800           169568        169568        169568        169568        169568        169568        67113.6       67113.6       67113.6       67113.6       67113.6      
850           169568        169568        169568        169568        169568        169568        67113.6       67113.6       67113.6       67113.6       67113.6      
900           169568        169568        169568        169568        169568        169568        67113.6       67113.6       67113.6       67113.6       67113.6      
950           169568        169568        169568        169568        169568        169568        67113.6       67113.6       67113.6       67113.6       67113.6      
1000          169568        169568        169568        169568        169568        169568        67113.6       67113.6       67113.6       67113.6       67113.6      
1050          169568        169568        169568        169568        169568        169568        67113.6       67113.6       67113.6       67113.6       67113.6      
1100          169568        169568        169568        169568        169568        169568        67113.6       67113.6       67113.6       67113.6       67113.6      
1150          169568        169568        169568        169568        169568        169568        67113.6       67113.6       67113.6       67113.6       67113.6      
1200          169568        169568        169568        169568        169568        169568        67113.6       67113.6       67113.6       67113.6       67113.6      
1250          169568        169568        169568        169568        169568        169568        67113.6       67113.6       67113.6       67113.6       67113.6      
1300          169568        169568        169568        169568        169568        169568        67113.6       67113.6       67113.6       67113.6       67113.6      
1350          169568        169568        169568        169568        169568        169568        67113.6       67113.6       67113.6       67113.6       67113.6      
1400          169568        169568        169568        169568        169568        169568        67113.6       67113.6       67113.6       67113.6       67113.6      
1450          169568        169568        169568        169568        169568        169568        67113.6       67113.6       67113.6       67113.6       67113.6      
1500          169568        169568        169568        169568        169568        169568        67113.6       67113.6       67113.6       67113.6       67113.6      
1550          169568        169568        169568        169568        169568        169568        67113.6       67113.6       67113.6       67113.6       67113.6      
1600          169568        169568        169568        169568        169568        169568        67113.6       67113.6       67113.6       67113.6       67113.6      
1650          169568        169568        169568        169568        169568        169568        67113.6       67113.6       67113.6       67113.6       67113.6      
1700          169568        169568        169568        169568        169568        169568        67113.6       67113.6       67113.6       67113.6       67113.6      
1750          169568        169568        169568        169568        169568        169568        67113.6       67113.6       67113.6       67113.6       67113.6      
1800          169568        169568        169568        169568        169568        169568        67113.6       67113.6       67113.6       67113.6       67113.6      
1850          169568        169568        169568        169568        169568        169568        67113.6       67113.6       67113.6       67113.6       67113.6      
1900          169568        169568        169568        169568        169568        169568        67113.6       67113.6       67113.6       67113.6       67113.6      
1950          169568        169568        169568        169568        169568        169568        67113.6       67113.6       67113.6       67113.6       67113.6      
2000          169568        169568        169568        169568        169568        169568        67113.6       67113.6       67113.6       67113.6       67113.6      
2050          169568        169568        169568        169568        169568        169568        67113.6       67113.6       67113.6       67113.6       67113.6      
2100          169568        169568        169568        169568        169568        169568        67113.6       67113.6       67113.6       67113.6       67113.6      
2150          169568        169568        169568        169568        169568        169568        67113.6       67113.6       67113.6       67113.6       67113.6      
2200          169568        169568        169568        169568        169568        169568        67113.6       67113.6       67113.6       67113.6       67113.6      
2250          169568        169568        169568        169568        169568        169568        67113.6       67113.6       67113.6       67113.6       67113.6      
2300          169568        169568        169568        169568        169568        169568        67113.6       67113.6       67113.6       67113.6       67113.6      
2350          169568        169568        169568        169568        169568        169568        67113.6       67113.6       67113.6       67113.6       67113.6      
2400          169568        169568        169568        169568        169568        169568        67113.6       67113.6       67113.6       67113.6       67113.6      
2450          169568        169568        169568        169568        169568        169568        67113.6       67113.6       67113.6       67113.6       67113.6      
2500          169568        169568        169568        169568        169568        169568        67113.6       67113.6       67113.6       67113.6       67113.6      
2550          169568        169568        169568        169568        169568        169568        67113.6       67113.6       67113.6       67113.6       67113.6      
2600          169568        169568        169568        169568        169568        169568        67113.6       67113.6       67113.6       67113.6       67113.6      
2650          169568        169568        169568        169568        169568        169568        67113.6       67113.6       67113.6       67113.6       67113.6      
2700          169568        169568        169568        169568        169568        169568        67113.6       67113.6       67113.6       67113.6       67113.6      
2750          169568        169568        169568        169568        169568        169568        67113.6       67113.6       67113.6       67113.6       67113.6      
2800          169568        169568        169568        169568        169568        169568        67113.6       67113.6       67113.6       67113.6       67113.6      
2850          169568        169568        169568        169568        169568        169568        67113.6       67113.6       67113.6       67113.6       67113.6      
2900          169568        169568        169568        169568        169568        169568        67113.6       67113.6       67113.6       67113.6       67113.6      
2950          169568        169568        169568        169568        169568        169568        67113.6       67113.6       67113.6       67113.6       67113.6      
3000          169568        169568        169568        169568        169568        169568        67113.6       67113.6       67113.6       67113.6       67113.6      
3050          169568        169568        169568        169568        169568        169568        67113.6       67113.6       67113.6       67113.6       67113.6      
3100          169568        169568        169568        169568        169568        169568        67113.6       67113.6       67113.6       67113.6       67113.6      
3150          169568        169568        169568        169568        169568        169568        67113.6       67113.6       67113.6       67113.6       67113.6      
3200          169568        169568        169568        169568        169568        169568        67113.6       67113.6       67113.6       67113.6       67113.6      
3250          169568        169568        169568        169568        169568        169568        67113.6       67113.6       67113.6       67113.6       67113.6      
3300          169568        169568        169568        169568        169568        169568        67113.6       67113.6       67113.6       67113.6       67113.6      
3350          169568        169568        169568        169568        169568        169568        67113.6       67113.6       67113.6       67113.6       67113.6      
3400          169568        169568        169568        169568        169568        169568        67113.6       67113.6       67113.6       67113.6       67113.6      
3450          169568        169568        169568        169568        169568        169568        67113.6       67113.6       67113.6       67113.6       67113.6      
3500          169568        169568        169568        169568        169568        169568        67113.6       67113.6       67113.6       67113.6       67113.6      
3550          169568        169568        169568        169568        169568        169568        67113.6       67113.6       67113.6       67113.6       67113.6      
3600          169568        169568        169568        169568        169568        169568        67113.6       67113.6       67113.6       67113.6       67113.6      
3650          169568        169568        169568        169568        169568        169568        67113.6       67113.6       67113.6       67113.6       67113.6      
3700          169568        169568        169568        169568        169568        169568        67113.6       67113.6       67113.6       67113.6       67113.6      
3750          169568        169568        169568        169568        169568        169568        67113.6       67113.6       67113.6       67113.6       67113.6      
3800          169568        169568        169568        169568        169568        169568        67113.6       67113.6       67113.6       67113.6       67113.6      
3850          169568        169568        169568        169568        169568        169568        67113.6       67113.6       67113.6       67113.6       67113.6      
3900          169568        169568        169568        169568        169568        169568        67113.6       67113.6       67113.6       67113.6       67113.6      
3950          169568        169568        169568        169568        169568        169568        67113.6       67113.6       67113.6       67113.6       67113.6      
4000          169568        169568        169568        169568        169568        169568        67113.6       67113.6       67113.6       67113.6       67113.6      
4050          169568        169568        169568        169568        169568        169568        67113.6       67113.6       67113.6       67113.6       67113.6      
4100          169568        169568        169568        169568        169568        169568        67113.6       67113.6       67113.6       67113.6       67113.6      
4150          169568        169568        169568        169568        169568        169568        67113.6       67113.6       67113.6       67113.6       67113.6      
4200          169568        169568        169568        169568        169568        169568        67113.6       67113.6       67113.6       67113.6       67113.6      
4250          169568        169568        169568        169568        169568        169568        67113.6       67113.6       67113.6       67113.6       67113.6      
4300          169568        169568        169568        169568        169568        169568        67113.6       67113.6       67113.6       67113.6       67113.6      
4350          169568        169568        169568        169568        169568        169568        67113.6       67113.6       67113.6       67113.6       67113.6      
4400          169568        169568        169568        169568        169568        169568        67113.6       67113.6       67113.6       67113.6       67113.6      
4450          169568        169568        169568        169568        169568        169568        67113.6       67113.6       67113.6       67113.6       67113.6      
4500          169568        169568        169568        169568        169568        169568        67113.6       67113.6       67113.6       67113.6       67113.6      
4550          169568        169568        169568        169568        169568        169568        67113.6       67113.6       67113.6       67113.6       67113.6      
4600          169568        169568        169568        169568        169568        169568        67113.6       67113.6       67113.6       67113.6       67113.6      
4650          169568        169568        169568        169568        169568        169568        67113.6       67113.6       67113.6       67113.6       67113.6      
4700          169568        169568        169568        169568        169568        169568        67113.6       67113.6       67113.6       67113.6       67113.6      
4750          169568        169568        169568        169568        169568        169568        67113.6       67113.6       67113.6       67113.6       67113.6      
4800          169568        169568        169568        169568        169568        169568        67113.6       67113.6       67113.6       67113.6       67113.6      
4850          169568        169568        169568        169568        169568        169568        67113.6       67113.6       67113.6       67113.6       67113.6      
4900          169568        169568        169568        169568        169568        169568        67113.6       67113.6       67113.6       67113.6       67113.6      
4950          169568        169568        169568        169568        169568        169568        67113.6       67113.6       67113.6       67113.6       67113.6      
5000          169568        169568        169568        169568        169568        169568        67113.6       67113.6       67113.6       67113.6       67113.6      
5050          169568        169568        169568        169568        169568        169568        67113.6       67113.6       67113.6       67113.6       67113.6      
5100          169568        169568        169568        169568        169568        169568        67113.6       67113.6       67113.6       67113.6       67113.6      
5150          169568        169568        169568        169568        169568        169568        67113.6       67113.6       67113.6       67113.6       67113.6      
5200          169568        169568        169568        169568        169568        169568        67113.6       67113.6       67113.6       67113.6       67113.6      
5250          169568        169568        169568        169568        169568        169568        67113.6       67113.6       67113.6       67113.6       67113.6      
5300          169568        169568        169568        169568        169568        169568        67113.6       67113.6       67113.6       67113.6       67113.6      
5350          169568        169568        169568        169568        169568        169568        67113.6       67113.6       67113.6       67113.6       67113.6      
5400          169568        169568        169568        169568        169568        169568        67113.6       67113.6       67113.6       67113.6       67113.6      
5450          169568        169568        169568        169568        169568        169568        67113.6       67113.6       67113.6       67113.6       67113.6      
5500          169568        169568        169568        169568        169568        169568        67113.6       67113.6       67113.6       67113.6       67113.6      
5550          169568        169568        169568        169568        169568        169568        67113.6       67113.6       67113.6       67113.6       67113.6      
5600          169568        169568        169568        169568        169568        169568        67113.6       67113.6       67113.6       67113.6       67113.6      
5650          169568        169568        169568        169568        169568        169568        67113.6       67113.6       67113.6       67113.6       67113.6      
5700          169568        169568        169568        169568        169568        169568        67113.6       67113.6       67113.6       67113.6       67113.6      
5750          169568        169568        169568        169568        169568        169568        67113.6       67113.6       67113.6       67113.6       67113.6      
5800          169568        169568        169568        169568        169568        169568        67113.6       67113.6       67113.6       67113.6       67113.6      
5850          169568        169568        169568        169568        169568        169568        67113.6       67113.6       67113.6       67113.6       67113.6      
5900          169568        169568        169568        169568        169568        169568        67113.6       67113.6       67113.6       67113.6       67113.6      
5950          169568        169568        169568        169568        169568        169568        67113.6       67113.6       67113.6       67113.6       67113.6      
6000          169568        169568        169568        169568        169568        169568        67113.6       67113.6       67113.6       67113.6       67113.6      
6050          169568        169568        169568        169568        169568        169568        67113.6       67113.6       67113.6       67113.6       67113.6      
6100          169568        169568        169568        169568        169568        169568        67113.6       67113.6       67113.6       67113.6       67113.6      
6150          169568        169568        169568        169568        169568        169568        67113.6       67113.6       67113.6       67113.6       67113.6      
6200          169568        169568        169568        169568        169568        169568        67113.6       67113.6       67113.6       67113.6       67113.6      
6250          169568        169568        169568        169568        169568        169568        67113.6       67113.6       67113.6       67113.6       67113.6      
6300          169568        169568        169568        169568        169568        169568        67113.6       67113.6       67113.6       67113.6       67113.6      
6350          169568        169568        169568        169568        169568        169568        67113.6       67113.6       67113.6       67113.6       67113.6      
6400          169568        169568        169568        169568        169568        169568        67113.6       67113.6       67113.6       67113.6       67113.6      
6450          169568        169568        169568        169568        169568        169568        67113.6       67113.6       67113.6       67113.6       67113.6      
6500          169568        169568        169568        169568        169568        169568        67113.6       67113.6       67113.6       67113.6       67113.6      
6550          169568        169568        169568        169568        169568        169568        67113.6       67113.6       67113.6       67113.6       67113.6      
6600          169568        169568        169568        169568        169568        169568        67113.6       67113.6       67113.6       67113.6       67113.6      
6650          169568        169568        169568        169568        169568        169568        67113.6       67113.6       67113.6       67113.6       67113.6      
6700          169568        169568        169568        169568        169568        169568        67113.6       67113.6       67113.6       67113.6       67113.6      
6750          169568        169568        169568        169568        169568        169568        67113.6       67113.6       67113.6       67113.6       67113.6      
6800          169568        169568        169568        169568        169568        169568        67113.6       67113.6       67113.6       67113.6       67113.6      
6850          169568        169568        169568        169568        169568        169568        67113.6       67113.6       67113.6       67113.6       67113.6      
6900          169568        169568        169568        169568        169568        169568        67113.6       67113.6       67113.6       67113.6       67113.6      
6950          169568        169568        169568        169568        169568        169568        67113.6       67113.6       67113.6       67113.6       67113.6      
7000          169568        169568        169568        169568        169568        169568        67113.6       67113.6       67113.6       67113.6       67113.6      
7050          169568        169568        169568        169568        169568        169568        67113.6       67113.6       67113.6       67113.6       67113.6      
7100          169568        169568        169568        169568        169568        169568        67113.6       67113.6       67113.6       67113.6       67113.6      
7150          169568        169568        169568        169568        169568        169568        67113.6       67113.6       67113.6       67113.6       67113.6      
7200          169568        169568        169568        169568        169568        169568        67113.6       67113.6       67113.6       67113.6       67113.6      
7250          169568        169568        169568        169568        169568        169568        67113.6       67113.6       67113.6       67113.6       67113.6      
7300          169568        169568        169568        169568        169568        169568        67113.6       67113.6       67113.6       67113.6       67113.6      
7350          169568        169568        169568        169568        169568        169568        67113.6       67113.6       67113.6       67113.6       67113.6      
7400          169568        169568        169568        169568        169568        169568        67113.6       67113.6       67113.6       67113.6       67113.6      
7450          169568        169568        169568        169568        169568        169568        67113.6       67113.6       67113.6       67113.6       67113.6      
7500          169568        169568        169568        169568        169568        169568        67113.6       67113.6       67113.6       67113.6       67113.6      
7550          169568        169568        169568        169568        169568        169568        67113.6       67113.6       67113.6       67113.6       67113.6      
7600          169568        169568        169568        169568        169568        169568        67113.6       67113.6       67113.6       67113.6       67113.6      
7650          169568        169568        169568        169568        169568        169568        67113.6       67113.6       67113.6       67113.6       67113.6      
7700          169568        169568        169568        169568        169568        169568        67113.6       67113.6       67113.6       67113.6       67113.6      
7750          169568        169568        169568        169568        169568        169568        67113.6       67113.6       67113.6       67113.6       67113.6      
7800          169568        169568        169568        169568        169568        169568        67113.6       67113.6       67113.6       67113.6       67113.6      
7850          169568        169568        169568        169568        169568        169568        67113.6       67113.6       67113.6       67113.6       67113.6      
7900          169568        169568        169568        169568        169568        169568        67113.6       67113.6       67113.6       67113.6       67113.6      
7950          169568        169568        169568        169568        169568        169568        67113.6       67113.6       67113.6       67113.6       67113.6      
8000          169568        169568        169568        169568        169568        169568        67113.6       67113.6       67113.6       67113.6       67113.6      
8050          169568        169568        169568        169568        169568        169568        67113.6       67113.6       67113.6       67113.6       67113.6      
8100          169568        169568        169568        169568        169568        169568        67113.6       67113.6       67113.6       67113.6       67113.6      
8150          169568        169568        169568        169568        169568        169568        67113.6       67113.6       67113.6       67113.6       67113.6      
8200          169568        169568        169568        169568        169568        169568        67113.6       67113.6       67113.6       67113.6       67113.6      
8250          169568        169568        169568        169568        169568        169568        67113.6       67113.6       67113.6       67113.6       67113.6      
8300          169568        169568        169568        169568        169568        169568        67113.6       67113.6       67113.6       67113.6       67113.6      
8350          169568        169568        169568        169568        169568        169568        67113.6       67113.6       67113.6       67113.6       67113.6      
8400          169568        169568        169568        169568        169568        169568        67113.6       67113.6       67113.6       67113.6       67113.6      
8450          169568        169568        169568        169568        169568        169568        67113.6       67113.6       67113.6       67113.6       67113.6      
8500          169568        169568        169568        169568        169568        169568        67113.6       67113.6       67113.6       67113.6       67113.6      
8550          169568        169568        169568        169568        169568        169568        67113.6       67113.6       67113.6       67113.6       67113.6      
8600          169568        169568        169568        169568        169568        169568        67113.6       67113.6       67113.6       67113.6       67113.6      
8650          169568        169568        169568        169568        169568        169568        67113.6       67113.6       67113.6       67113.6       67113.6      
8700          169568        169568        169568        169568        169568        169568        67113.6       67113.6       67113.6       67113.6       67113.6      
8750          169568        169568        169568        169568        169568        169568        67113.6       67113.6       67113.6       67113.6       67113.6      