# Probe 0 (0.0015 0.0015 0)
# Probe 1 (0.0015 0.0015 0.01)
# Probe 2 (0.0015 0.0015 0.02)
# Probe 3 (0.0015 0.0015 0.03)
# Probe 4 (0.0015 0.0015 0.04)
# Probe 5 (0.0015 0.0015 0.05)
# Probe 6 (0.0015 0.0015 0.06)
# Probe 7 (0.0015 0.0015 0.07)
# Probe 8 (0.0015 0.0015 0.08)
# Probe 9 (0.0015 0.0015 0.09)
# Probe 10 (0.0015 0.0015 0.1)
# Time        0             1             2             3             4             5             6             7             8             9             10           
50            (-7.93902 -7.93902 -2.10919e+06) (-7.93902 -7.93902 -2.10919e+06) (-7.93902 -7.93902 -2.10919e+06) (-7.93902 -7.93902 -2.10919e+06) (-7.93902 -7.93902 -2.10919e+06) (-7.93902 -7.93902 -2.10919e+06) (-18.6047 -18.6047 -1.92702e+06) (-18.6047 -18.6047 -1.92702e+06) (-18.6047 -18.6047 -1.92702e+06) (-18.6047 -18.6047 -1.92702e+06) (-18.6047 -18.6047 -1.92702e+06)
100           (1.97152 1.97152 -2.02461e+06) (1.97152 1.97152 -2.02461e+06) (1.97152 1.97152 -2.02461e+06) (1.97152 1.97152 -2.02461e+06) (1.97152 1.97152 -2.02461e+06) (1.97152 1.97152 -2.02461e+06) (18.0794 18.0794 -2.02936e+06) (18.0794 18.0794 -2.02936e+06) (18.0794 18.0794 -2.02936e+06) (18.0794 18.0794 -2.02936e+06) (18.0794 18.0794 -2.02936e+06)
150           (1.11729 1.11729 -2.00994e+06) (1.11729 1.11729 -2.00994e+06) (1.11729 1.11729 -2.00994e+06) (1.11729 1.11729 -2.00994e+06) (1.11729 1.11729 -2.00994e+06) (1.11729 1.11729 -2.00994e+06) (11.1564 11.1564 -2.04566e+06) (11.1564 11.1564 -2.04566e+06) (11.1564 11.1564 -2.04566e+06) (11.1564 11.1564 -2.04566e+06) (11.1564 11.1564 -2.04566e+06)
200           (0.0406436 0.0406436 -2.00647e+06) (0.0406436 0.0406436 -2.00647e+06) (0.0406436 0.0406436 -2.00647e+06) (0.0406436 0.0406436 -2.00647e+06) (0.0406436 0.0406436 -2.00647e+06) (0.0406436 0.0406436 -2.00647e+06) (-0.258124 -0.258124 -2.04942e+06) (-0.258124 -0.258124 -2.04942e+06) (-0.258124 -0.258124 -2.04942e+06) (-0.258124 -0.258124 -2.04942e+06) (-0.258124 -0.258124 -2.04942e+06)
250           (-0.496264 -0.496264 -2.00556e+06) (-0.496264 -0.496264 -2.00556e+06) (-0.496264 -0.496264 -2.00556e+06) (-0.496264 -0.496264 -2.00556e+06) (-0.496264 -0.496264 -2.00556e+06) (-0.496264 -0.496264 -2.00556e+06) (-2.83498 -2.83498 -2.05039e+06) (-2.83498 -2.83498 -2.05039e+06) (-2.83498 -2.83498 -2.05039e+06) (-2.83498 -2.83498 -2.05039e+06) (-2.83498 -2.83498 -2.05039e+06)
300           (-0.29601 -0.29601 -2.00532e+06) (-0.29601 -0.29601 -2.00532e+06) (-0.29601 -0.29601 -2.00532e+06) (-0.29601 -0.29601 -2.00532e+06) (-0.29601 -0.29601 -2.00532e+06) (-0.29601 -0.29601 -2.00532e+06) (0.186025 0.186025 -2.05065e+06) (0.186025 0.186025 -2.05065e+06) (0.186025 0.186025 -2.05065e+06) (0.186025 0.186025 -2.05065e+06) (0.186025 0.186025 -2.05065e+06)
350           (-0.328521 -0.328521 -2.00526e+06) (-0.328521 -0.328521 -2.00526e+06) (-0.328521 -0.328521 -2.00526e+06) (-0.328521 -0.328521 -2.00526e+06) (-0.328521 -0.328521 -2.00526e+06) (-0.328521 -0.328521 -2.00526e+06) (-0.241642 -0.241642 -2.05072e+06) (-0.241642 -0.241642 -2.05072e+06) (-0.241642 -0.241642 -2.05072e+06) (-0.241642 -0.241642 -2.05072e+06) (-0.241642 -0.241642 -2.05072e+06)
400           (-0.321616 -0.321616 -2.00523e+06) (-0.321616 -0.321616 -2.00523e+06) (-0.321616 -0.321616 -2.00523e+06) (-0.321616 -0.321616 -2.00523e+06) (-0.321616 -0.321616 -2.00523e+06) (-0.321616 -0.321616 -2.00523e+06) (-0.240161 -0.240161 -2.05074e+06) (-0.240161 -0.240161 -2.05074e+06) (-0.240161 -0.240161 -2.05074e+06) (-0.240161 -0.240161 -2.05074e+06) (-0.240161 -0.240161 -2.05074e+06)
450           (-0.321616 -0.321616 -2.00523e+06) (-0.321616 -0.321616 -2.00523e+06) (-0.321616 -0.321616 -2.00523e+06) (-0.321616 -0.321616 -2.00523e+06) (-0.321616 -0.321616 -2.00523e+06) (-0.321616 -0.321616 -2.00523e+06) (-0.240161 -0.240161 -2.05074e+06) (-0.240161 -0.240161 -2.05074e+06) (-0.240161 -0.240161 -2.05074e+06) (-0.240161 -0.240161 -2.05074e+06) (-0.240161 -0.240161 -2.05074e+06)
500           (-0.321616 -0.321616 -2.00523e+06) (-0.321616 -0.321616 -2.00523e+06) (-0.321616 -0.321616 -2.00523e+06) (-0.321616 -0.321616 -2.00523e+06) (-0.321616 -0.321616 -2.00523e+06) (-0.321616 -0.321616 -2.00523e+06) (-0.240161 -0.240161 -2.05074e+06) (-0.240161 -0.240161 -2.05074e+06) (-0.240161 -0.240161 -2.05074e+06) (-0.240161 -0.240161 -2.05074e+06) (-0.240161 -0.240161 -2.05074e+06)
550           (-0.321616 -0.321616 -2.00523e+06) (-0.321616 -0.321616 -2.00523e+06) (-0.321616 -0.321616 -2.00523e+06) (-0.321616 -0.321616 -2.00523e+06) (-0.321616 -0.321616 -2.00523e+06) (-0.321616 -0.321616 -2.00523e+06) (-0.240161 -0.240161 -2.05074e+06) (-0.240161 -0.240161 -2.05074e+06) (-0.240161 -0.240161 -2.05074e+06) (-0.240161 -0.240161 -2.05074e+06) (-0.240161 -0.240161 -2.05074e+06)
600           (-0.321616 -0.321616 -2.00523e+06) (-0.321616 -0.321616 -2.00523e+06) (-0.321616 -0.321616 -2.00523e+06) (-0.321616 -0.321616 -2.00523e+06) (-0.321616 -0.321616 -2.00523e+06) (-0.321616 -0.321616 -2.00523e+06) (-0.240161 -0.240161 -2.05074e+06) (-0.240161 -0.240161 -2.05074e+06) (-0.240161 -0.240161 -2.05074e+06) (-0.240161 -0.240161 -2.05074e+06) (-0.240161 -0.240161 -2.05074e+06)
650           (-0.321616 -0.321616 -2.00523e+06) (-0.321616 -0.321616 -2.00523e+06) (-0.321616 -0.321616 -2.00523e+06) (-0.321616 -0.321616 -2.00523e+06) (-0.321616 -0.321616 -2.00523e+06) (-0.321616 -0.321616 -2.00523e+06) (-0.240161 -0.240161 -2.05074e+06) (-0.240161 -0.240161 -2.05074e+06) (-0.240161 -0.240161 -2.05074e+06) (-0.240161 -0.240161 -2.05074e+06) (-0.240161 -0.240161 -2.05074e+06)
700           (-0.321616 -0.321616 -2.00523e+06) (-0.321616 -0.321616 -2.00523e+06) (-0.321616 -0.321616 -2.00523e+06) (-0.321616 -0.321616 -2.00523e+06) (-0.321616 -0.321616 -2.00523e+06) (-0.321616 -0.321616 -2.00523e+06) (-0.240161 -0.240161 -2.05074e+06) (-0.240161 -0.240161 -2.05074e+06) (-0.240161 -0.240161 -2.05074e+06) (-0.240161 -0.240161 -2.05074e+06) (-0.240161 -0.240161 -2.05074e+06)
750           (-0.321616 -0.321616 -2.00523e+06) (-0.321616 -0.321616 -2.00523e+06) (-0.321616 -0.321616 -2.00523e+06) (-0.321616 -0.321616 -2.00523e+06) (-0.321616 -0.321616 -2.00523e+06) (-0.321616 -0.321616 -2.00523e+06) (-0.240161 -0.240161 -2.05074e+06) (-0.240161 -0.240161 -2.05074e+06) (-0.240161 -0.240161 -2.05074e+06) (-0.240161 -0.240161 -2.05074e+06) (-0.240161 -0.240161 -2.05074e+06)
800           (-0.321616 -0.321616 -2.00523e+06) (-0.321616 -0.321616 -2.00523e+06) (-0.321616 -0.321616 -2.00523e+06) (-0.321616 -0.321616 -2.00523e+06) (-0.321616 -0.321616 -2.00523e+06) (-0.321616 -0.321616 -2.00523e+06) (-0.240161 -0.240161 -2.05074e+06) (-0.240161 -0.240161 -2.05074e+06) (-0.240161 -0.240161 -2.05074e+06) (-0.240161 -0.240161 -2.05074e+06) (-0.240161 -0.240161 -2.05074e+06)
850           (-0.321616 -0.321616 -2.00523e+06) (-0.321616 -0.321616 -2.00523e+06) (-0.321616 -0.321616 -2.00523e+06) (-0.321616 -0.321616 -2.00523e+06) (-0.321616 -0.321616 -2.00523e+06) (-0.321616 -0.321616 -2.00523e+06) (-0.240161 -0.240161 -2.05074e+06) (-0.240161 -0.240161 -2.05074e+06) (-0.240161 -0.240161 -2.05074e+06) (-0.240161 -0.240161 -2.05074e+06) (-0.240161 -0.240161 -2.05074e+06)
900           (-0.321616 -0.321616 -2.00523e+06) (-0.321616 -0.321616 -2.00523e+06) (-0.321616 -0.321616 -2.00523e+06) (-0.321616 -0.321616 -2.00523e+06) (-0.321616 -0.321616 -2.00523e+06) (-0.321616 -0.321616 -2.00523e+06) (-0.240161 -0.240161 -2.05074e+06) (-0.240161 -0.240161 -2.05074e+06) (-0.240161 -0.240161 -2.05074e+06) (-0.240161 -0.240161 -2.05074e+06) (-0.240161 -0.240161 -2.05074e+06)
950           (-0.321616 -0.321616 -2.00523e+06) (-0.321616 -0.321616 -2.00523e+06) (-0.321616 -0.321616 -2.00523e+06) (-0.321616 -0.321616 -2.00523e+06) (-0.321616 -0.321616 -2.00523e+06) (-0.321616 -0.321616 -2.00523e+06) (-0.240161 -0.240161 -2.05074e+06) (-0.240161 -0.240161 -2.05074e+06) (-0.240161 -0.240161 -2.05074e+06) (-0.240161 -0.240161 -2.05074e+06) (-0.240161 -0.240161 -2.05074e+06)
1000          (-0.321616 -0.321616 -2.00523e+06) (-0.321616 -0.321616 -2.00523e+06) (-0.321616 -0.321616 -2.00523e+06) (-0.321616 -0.321616 -2.00523e+06) (-0.321616 -0.321616 -2.00523e+06) (-0.321616 -0.321616 -2.00523e+06) (-0.240161 -0.240161 -2.05074e+06) (-0.240161 -0.240161 -2.05074e+06) (-0.240161 -0.240161 -2.05074e+06) (-0.240161 -0.240161 -2.05074e+06) (-0.240161 -0.240161 -2.05074e+06)
1050          (-0.321616 -0.321616 -2.00523e+06) (-0.321616 -0.321616 -2.00523e+06) (-0.321616 -0.321616 -2.00523e+06) (-0.321616 -0.321616 -2.00523e+06) (-0.321616 -0.321616 -2.00523e+06) (-0.321616 -0.321616 -2.00523e+06) (-0.240161 -0.240161 -2.05074e+06) (-0.240161 -0.240161 -2.05074e+06) (-0.240161 -0.240161 -2.05074e+06) (-0.240161 -0.240161 -2.05074e+06) (-0.240161 -0.240161 -2.05074e+06)
1100          (-0.321616 -0.321616 -2.00523e+06) (-0.321616 -0.321616 -2.00523e+06) (-0.321616 -0.321616 -2.00523e+06) (-0.321616 -0.321616 -2.00523e+06) (-0.321616 -0.321616 -2.00523e+06) (-0.321616 -0.321616 -2.00523e+06) (-0.240161 -0.240161 -2.05074e+06) (-0.240161 -0.240161 -2.05074e+06) (-0.240161 -0.240161 -2.05074e+06) (-0.240161 -0.240161 -2.05074e+06) (-0.240161 -0.240161 -2.05074e+06)
1150          (-0.321616 -0.321616 -2.00523e+06) (-0.321616 -0.321616 -2.00523e+06) (-0.321616 -0.321616 -2.00523e+06) (-0.321616 -0.321616 -2.00523e+06) (-0.321616 -0.321616 -2.00523e+06) (-0.321616 -0.321616 -2.00523e+06) (-0.240161 -0.240161 -2.05074e+06) (-0.240161 -0.240161 -2.05074e+06) (-0.240161 -0.240161 -2.05074e+06) (-0.240161 -0.240161 -2.05074e+06) (-0.240161 -0.240161 -2.05074e+06)
1200          (-0.321616 -0.321616 -2.00523e+06) (-0.321616 -0.321616 -2.00523e+06) (-0.321616 -0.321616 -2.00523e+06) (-0.321616 -0.321616 -2.00523e+06) (-0.321616 -0.321616 -2.00523e+06) (-0.321616 -0.321616 -2.00523e+06) (-0.240161 -0.240161 -2.05074e+06) (-0.240161 -0.240161 -2.05074e+06) (-0.240161 -0.240161 -2.05074e+06) (-0.240161 -0.240161 -2.05074e+06) (-0.240161 -0.240161 -2.05074e+06)
1250          (-0.321616 -0.321616 -2.00523e+06) (-0.321616 -0.321616 -2.00523e+06) (-0.321616 -0.321616 -2.00523e+06) (-0.321616 -0.321616 -2.00523e+06) (-0.321616 -0.321616 -2.00523e+06) (-0.321616 -0.321616 -2.00523e+06) (-0.240161 -0.240161 -2.05074e+06) (-0.240161 -0.240161 -2.05074e+06) (-0.240161 -0.240161 -2.05074e+06) (-0.240161 -0.240161 -2.05074e+06) (-0.240161 -0.240161 -2.05074e+06)
1300          (-0.321616 -0.321616 -2.00523e+06) (-0.321616 -0.321616 -2.00523e+06) (-0.321616 -0.321616 -2.00523e+06) (-0.321616 -0.321616 -2.00523e+06) (-0.321616 -0.321616 -2.00523e+06) (-0.321616 -0.321616 -2.00523e+06) (-0.240161 -0.240161 -2.05074e+06) (-0.240161 -0.240161 -2.05074e+06) (-0.240161 -0.240161 -2.05074e+06) (-0.240161 -0.240161 -2.05074e+06) (-0.240161 -0.240161 -2.05074e+06)
1350          (-0.321616 -0.321616 -2.00523e+06) (-0.321616 -0.321616 -2.00523e+06) (-0.321616 -0.321616 -2.00523e+06) (-0.321616 -0.321616 -2.00523e+06) (-0.321616 -0.321616 -2.00523e+06) (-0.321616 -0.321616 -2.00523e+06) (-0.240161 -0.240161 -2.05074e+06) (-0.240161 -0.240161 -2.05074e+06) (-0.240161 -0.240161 -2.05074e+06) (-0.240161 -0.240161 -2.05074e+06) (-0.240161 -0.240161 -2.05074e+06)
1400          (-0.321616 -0.321616 -2.00523e+06) (-0.321616 -0.321616 -2.00523e+06) (-0.321616 -0.321616 -2.00523e+06) (-0.321616 -0.321616 -2.00523e+06) (-0.321616 -0.321616 -2.00523e+06) (-0.321616 -0.321616 -2.00523e+06) (-0.240161 -0.240161 -2.05074e+06) (-0.240161 -0.240161 -2.05074e+06) (-0.240161 -0.240161 -2.05074e+06) (-0.240161 -0.240161 -2.05074e+06) (-0.240161 -0.240161 -2.05074e+06)
1450          (-0.321616 -0.321616 -2.00523e+06) (-0.321616 -0.321616 -2.00523e+06) (-0.321616 -0.321616 -2.00523e+06) (-0.321616 -0.321616 -2.00523e+06) (-0.321616 -0.321616 -2.00523e+06) (-0.321616 -0.321616 -2.00523e+06) (-0.240161 -0.240161 -2.05074e+06) (-0.240161 -0.240161 -2.05074e+06) (-0.240161 -0.240161 -2.05074e+06) (-0.240161 -0.240161 -2.05074e+06) (-0.240161 -0.240161 -2.05074e+06)
1500          (-0.321616 -0.321616 -2.00523e+06) (-0.321616 -0.321616 -2.00523e+06) (-0.321616 -0.321616 -2.00523e+06) (-0.321616 -0.321616 -2.00523e+06) (-0.321616 -0.321616 -2.00523e+06) (-0.321616 -0.321616 -2.00523e+06) (-0.240161 -0.240161 -2.05074e+06) (-0.240161 -0.240161 -2.05074e+06) (-0.240161 -0.240161 -2.05074e+06) (-0.240161 -0.240161 -2.05074e+06) (-0.240161 -0.240161 -2.05074e+06)
1550          (-0.321616 -0.321616 -2.00523e+06) (-0.321616 -0.321616 -2.00523e+06) (-0.321616 -0.321616 -2.00523e+06) (-0.321616 -0.321616 -2.00523e+06) (-0.321616 -0.321616 -2.00523e+06) (-0.321616 -0.321616 -2.00523e+06) (-0.240161 -0.240161 -2.05074e+06) (-0.240161 -0.240161 -2.05074e+06) (-0.240161 -0.240161 -2.05074e+06) (-0.240161 -0.240161 -2.05074e+06) (-0.240161 -0.240161 -2.05074e+06)
1600          (-0.321616 -0.321616 -2.00523e+06) (-0.321616 -0.321616 -2.00523e+06) (-0.321616 -0.321616 -2.00523e+06) (-0.321616 -0.321616 -2.00523e+06) (-0.321616 -0.321616 -2.00523e+06) (-0.321616 -0.321616 -2.00523e+06) (-0.240161 -0.240161 -2.05074e+06) (-0.240161 -0.240161 -2.05074e+06) (-0.240161 -0.240161 -2.05074e+06) (-0.240161 -0.240161 -2.05074e+06) (-0.240161 -0.240161 -2.05074e+06)
1650          (-0.321616 -0.321616 -2.00523e+06) (-0.321616 -0.321616 -2.00523e+06) (-0.321616 -0.321616 -2.00523e+06) (-0.321616 -0.321616 -2.00523e+06) (-0.321616 -0.321616 -2.00523e+06) (-0.321616 -0.321616 -2.00523e+06) (-0.240161 -0.240161 -2.05074e+06) (-0.240161 -0.240161 -2.05074e+06) (-0.240161 -0.240161 -2.05074e+06) (-0.240161 -0.240161 -2.05074e+06) (-0.240161 -0.240161 -2.05074e+06)
1700          (-0.321616 -0.321616 -2.00523e+06) (-0.321616 -0.321616 -2.00523e+06) (-0.321616 -0.321616 -2.00523e+06) (-0.321616 -0.321616 -2.00523e+06) (-0.321616 -0.321616 -2.00523e+06) (-0.321616 -0.321616 -2.00523e+06) (-0.240161 -0.240161 -2.05074e+06) (-0.240161 -0.240161 -2.05074e+06) (-0.240161 -0.240161 -2.05074e+06) (-0.240161 -0.240161 -2.05074e+06) (-0.240161 -0.240161 -2.05074e+06)
1750          (-0.321616 -0.321616 -2.00523e+06) (-0.321616 -0.321616 -2.00523e+06) (-0.321616 -0.321616 -2.00523e+06) (-0.321616 -0.321616 -2.00523e+06) (-0.321616 -0.321616 -2.00523e+06) (-0.321616 -0.321616 -2.00523e+06) (-0.240161 -0.240161 -2.05074e+06) (-0.240161 -0.240161 -2.05074e+06) (-0.240161 -0.240161 -2.05074e+06) (-0.240161 -0.240161 -2.05074e+06) (-0.240161 -0.240161 -2.05074e+06)
1800          (-0.321616 -0.321616 -2.00523e+06) (-0.321616 -0.321616 -2.00523e+06) (-0.321616 -0.321616 -2.00523e+06) (-0.321616 -0.321616 -2.00523e+06) (-0.321616 -0.321616 -2.00523e+06) (-0.321616 -0.321616 -2.00523e+06) (-0.240161 -0.240161 -2.05074e+06) (-0.240161 -0.240161 -2.05074e+06) (-0.240161 -0.240161 -2.05074e+06) (-0.240161 -0.240161 -2.05074e+06) (-0.240161 -0.240161 -2.05074e+06)
1850          (-0.321616 -0.321616 -2.00523e+06) (-0.321616 -0.321616 -2.00523e+06) (-0.321616 -0.321616 -2.00523e+06) (-0.321616 -0.321616 -2.00523e+06) (-0.321616 -0.321616 -2.00523e+06) (-0.321616 -0.321616 -2.00523e+06) (-0.240161 -0.240161 -2.05074e+06) (-0.240161 -0.240161 -2.05074e+06) (-0.240161 -0.240161 -2.05074e+06) (-0.240161 -0.240161 -2.05074e+06) (-0.240161 -0.240161 -2.05074e+06)
1900          (-0.321616 -0.321616 -2.00523e+06) (-0.321616 -0.321616 -2.00523e+06) (-0.321616 -0.321616 -2.00523e+06) (-0.321616 -0.321616 -2.00523e+06) (-0.321616 -0.321616 -2.00523e+06) (-0.321616 -0.321616 -2.00523e+06) (-0.240161 -0.240161 -2.05074e+06) (-0.240161 -0.240161 -2.05074e+06) (-0.240161 -0.240161 -2.05074e+06) (-0.240161 -0.240161 -2.05074e+06) (-0.240161 -0.240161 -2.05074e+06)
1950          (-0.321616 -0.321616 -2.00523e+06) (-0.321616 -0.321616 -2.00523e+06) (-0.321616 -0.321616 -2.00523e+06) (-0.321616 -0.321616 -2.00523e+06) (-0.321616 -0.321616 -2.00523e+06) (-0.321616 -0.321616 -2.00523e+06) (-0.240161 -0.240161 -2.05074e+06) (-0.240161 -0.240161 -2.05074e+06) (-0.240161 -0.240161 -2.05074e+06) (-0.240161 -0.240161 -2.05074e+06) (-0.240161 -0.240161 -2.05074e+06)
2000          (-0.321616 -0.321616 -2.00523e+06) (-0.321616 -0.321616 -2.00523e+06) (-0.321616 -0.321616 -2.00523e+06) (-0.321616 -0.321616 -2.00523e+06) (-0.321616 -0.321616 -2.00523e+06) (-0.321616 -0.321616 -2.00523e+06) (-0.240161 -0.240161 -2.05074e+06) (-0.240161 -0.240161 -2.05074e+06) (-0.240161 -0.240161 -2.05074e+06) (-0.240161 -0.240161 -2.05074e+06) (-0.240161 -0.240161 -2.05074e+06)
2050          (-0.321616 -0.321616 -2.00523e+06) (-0.321616 -0.321616 -2.00523e+06) (-0.321616 -0.321616 -2.00523e+06) (-0.321616 -0.321616 -2.00523e+06) (-0.321616 -0.321616 -2.00523e+06) (-0.321616 -0.321616 -2.00523e+06) (-0.240161 -0.240161 -2.05074e+06) (-0.240161 -0.240161 -2.05074e+06) (-0.240161 -0.240161 -2.05074e+06) (-0.240161 -0.240161 -2.05074e+06) (-0.240161 -0.240161 -2.05074e+06)
2100          (-0.321616 -0.321616 -2.00523e+06) (-0.321616 -0.321616 -2.00523e+06) (-0.321616 -0.321616 -2.00523e+06) (-0.321616 -0.321616 -2.00523e+06) (-0.321616 -0.321616 -2.00523e+06) (-0.321616 -0.321616 -2.00523e+06) (-0.240161 -0.240161 -2.05074e+06) (-0.240161 -0.240161 -2.05074e+06) (-0.240161 -0.240161 -2.05074e+06) (-0.240161 -0.240161 -2.05074e+06) (-0.240161 -0.240161 -2.05074e+06)
2150          (-0.321616 -0.321616 -2.00523e+06) (-0.321616 -0.321616 -2.00523e+06) (-0.321616 -0.321616 -2.00523e+06) (-0.321616 -0.321616 -2.00523e+06) (-0.321616 -0.321616 -2.00523e+06) (-0.321616 -0.321616 -2.00523e+06) (-0.240161 -0.240161 -2.05074e+06) (-0.240161 -0.240161 -2.05074e+06) (-0.240161 -0.240161 -2.05074e+06) (-0.240161 -0.240161 -2.05074e+06) (-0.240161 -0.240161 -2.05074e+06)
2200          (-0.321616 -0.321616 -2.00523e+06) (-0.321616 -0.321616 -2.00523e+06) (-0.321616 -0.321616 -2.00523e+06) (-0.321616 -0.321616 -2.00523e+06) (-0.321616 -0.321616 -2.00523e+06) (-0.321616 -0.321616 -2.00523e+06) (-0.240161 -0.240161 -2.05074e+06) (-0.240161 -0.240161 -2.05074e+06) (-0.240161 -0.240161 -2.05074e+06) (-0.240161 -0.240161 -2.05074e+06) (-0.240161 -0.240161 -2.05074e+06)
2250          (-0.321616 -0.321616 -2.00523e+06) (-0.321616 -0.321616 -2.00523e+06) (-0.321616 -0.321616 -2.00523e+06) (-0.321616 -0.321616 -2.00523e+06) (-0.321616 -0.321616 -2.00523e+06) (-0.321616 -0.321616 -2.00523e+06) (-0.240161 -0.240161 -2.05074e+06) (-0.240161 -0.240161 -2.05074e+06) (-0.240161 -0.240161 -2.05074e+06) (-0.240161 -0.240161 -2.05074e+06) (-0.240161 -0.240161 -2.05074e+06)
2300          (-0.321616 -0.321616 -2.00523e+06) (-0.321616 -0.321616 -2.00523e+06) (-0.321616 -0.321616 -2.00523e+06) (-0.321616 -0.321616 -2.00523e+06) (-0.321616 -0.321616 -2.00523e+06) (-0.321616 -0.321616 -2.00523e+06) (-0.240161 -0.240161 -2.05074e+06) (-0.240161 -0.240161 -2.05074e+06) (-0.240161 -0.240161 -2.05074e+06) (-0.240161 -0.240161 -2.05074e+06) (-0.240161 -0.240161 -2.05074e+06)
2350          (-0.321616 -0.321616 -2.00523e+06) (-0.321616 -0.321616 -2.00523e+06) (-0.321616 -0.321616 -2.00523e+06) (-0.321616 -0.321616 -2.00523e+06) (-0.321616 -0.321616 -2.00523e+06) (-0.321616 -0.321616 -2.00523e+06) (-0.240161 -0.240161 -2.05074e+06) (-0.240161 -0.240161 -2.05074e+06) (-0.240161 -0.240161 -2.05074e+06) (-0.240161 -0.240161 -2.05074e+06) (-0.240161 -0.240161 -2.05074e+06)
2400          (-0.321616 -0.321616 -2.00523e+06) (-0.321616 -0.321616 -2.00523e+06) (-0.321616 -0.321616 -2.00523e+06) (-0.321616 -0.321616 -2.00523e+06) (-0.321616 -0.321616 -2.00523e+06) (-0.321616 -0.321616 -2.00523e+06) (-0.240161 -0.240161 -2.05074e+06) (-0.240161 -0.240161 -2.05074e+06) (-0.240161 -0.240161 -2.05074e+06) (-0.240161 -0.240161 -2.05074e+06) (-0.240161 -0.240161 -2.05074e+06)
2450          (-0.321616 -0.321616 -2.00523e+06) (-0.321616 -0.321616 -2.00523e+06) (-0.321616 -0.321616 -2.00523e+06) (-0.321616 -0.321616 -2.00523e+06) (-0.321616 -0.321616 -2.00523e+06) (-0.321616 -0.321616 -2.00523e+06) (-0.240161 -0.240161 -2.05074e+06) (-0.240161 -0.240161 -2.05074e+06) (-0.240161 -0.240161 -2.05074e+06) (-0.240161 -0.240161 -2.05074e+06) (-0.240161 -0.240161 -2.05074e+06)
2500          (-0.321616 -0.321616 -2.00523e+06) (-0.321616 -0.321616 -2.00523e+06) (-0.321616 -0.321616 -2.00523e+06) (-0.321616 -0.321616 -2.00523e+06) (-0.321616 -0.321616 -2.00523e+06) (-0.321616 -0.321616 -2.00523e+06) (-0.240161 -0.240161 -2.05074e+06) (-0.240161 -0.240161 -2.05074e+06) (-0.240161 -0.240161 -2.05074e+06) (-0.240161 -0.240161 -2.05074e+06) (-0.240161 -0.240161 -2.05074e+06)
2550          (-0.321616 -0.321616 -2.00523e+06) (-0.321616 -0.321616 -2.00523e+06) (-0.321616 -0.321616 -2.00523e+06) (-0.321616 -0.321616 -2.00523e+06) (-0.321616 -0.321616 -2.00523e+06) (-0.321616 -0.321616 -2.00523e+06) (-0.240161 -0.240161 -2.05074e+06) (-0.240161 -0.240161 -2.05074e+06) (-0.240161 -0.240161 -2.05074e+06) (-0.240161 -0.240161 -2.05074e+06) (-0.240161 -0.240161 -2.05074e+06)
2600          (-0.321616 -0.321616 -2.00523e+06) (-0.321616 -0.321616 -2.00523e+06) (-0.321616 -0.321616 -2.00523e+06) (-0.321616 -0.321616 -2.00523e+06) (-0.321616 -0.321616 -2.00523e+06) (-0.321616 -0.321616 -2.00523e+06) (-0.240161 -0.240161 -2.05074e+06) (-0.240161 -0.240161 -2.05074e+06) (-0.240161 -0.240161 -2.05074e+06) (-0.240161 -0.240161 -2.05074e+06) (-0.240161 -0.240161 -2.05074e+06)
2650          (-0.321616 -0.321616 -2.00523e+06) (-0.321616 -0.321616 -2.00523e+06) (-0.321616 -0.321616 -2.00523e+06) (-0.321616 -0.321616 -2.00523e+06) (-0.321616 -0.321616 -2.00523e+06) (-0.321616 -0.321616 -2.00523e+06) (-0.240161 -0.240161 -2.05074e+06) (-0.240161 -0.240161 -2.05074e+06) (-0.240161 -0.240161 -2.05074e+06) (-0.240161 -0.240161 -2.05074e+06) (-0.240161 -0.240161 -2.05074e+06)
2700          (-0.321616 -0.321616 -2.00523e+06) (-0.321616 -0.321616 -2.00523e+06) (-0.321616 -0.321616 -2.00523e+06) (-0.321616 -0.321616 -2.00523e+06) (-0.321616 -0.321616 -2.00523e+06) (-0.321616 -0.321616 -2.00523e+06) (-0.240161 -0.240161 -2.05074e+06) (-0.240161 -0.240161 -2.05074e+06) (-0.240161 -0.240161 -2.05074e+06) (-0.240161 -0.240161 -2.05074e+06) (-0.240161 -0.240161 -2.05074e+06)
2750          (-0.321616 -0.321616 -2.00523e+06) (-0.321616 -0.321616 -2.00523e+06) (-0.321616 -0.321616 -2.00523e+06) (-0.321616 -0.321616 -2.00523e+06) (-0.321616 -0.321616 -2.00523e+06) (-0.321616 -0.321616 -2.00523e+06) (-0.240161 -0.240161 -2.05074e+06) (-0.240161 -0.240161 -2.05074e+06) (-0.240161 -0.240161 -2.05074e+06) (-0.240161 -0.240161 -2.05074e+06) (-0.240161 -0.240161 -2.05074e+06)
2800          (-0.321616 -0.321616 -2.00523e+06) (-0.321616 -0.321616 -2.00523e+06) (-0.321616 -0.321616 -2.00523e+06) (-0.321616 -0.321616 -2.00523e+06) (-0.321616 -0.321616 -2.00523e+06) (-0.321616 -0.321616 -2.00523e+06) (-0.240161 -0.240161 -2.05074e+06) (-0.240161 -0.240161 -2.05074e+06) (-0.240161 -0.240161 -2.05074e+06) (-0.240161 -0.240161 -2.05074e+06) (-0.240161 -0.240161 -2.05074e+06)
2850          (-0.321616 -0.321616 -2.00523e+06) (-0.321616 -0.321616 -2.00523e+06) (-0.321616 -0.321616 -2.00523e+06) (-0.321616 -0.321616 -2.00523e+06) (-0.321616 -0.321616 -2.00523e+06) (-0.321616 -0.321616 -2.00523e+06) (-0.240161 -0.240161 -2.05074e+06) (-0.240161 -0.240161 -2.05074e+06) (-0.240161 -0.240161 -2.05074e+06) (-0.240161 -0.240161 -2.05074e+06) (-0.240161 -0.240161 -2.05074e+06)
2900          (-0.321616 -0.321616 -2.00523e+06) (-0.321616 -0.321616 -2.00523e+06) (-0.321616 -0.321616 -2.00523e+06) (-0.321616 -0.321616 -2.00523e+06) (-0.321616 -0.321616 -2.00523e+06) (-0.321616 -0.321616 -2.00523e+06) (-0.240161 -0.240161 -2.05074e+06) (-0.240161 -0.240161 -2.05074e+06) (-0.240161 -0.240161 -2.05074e+06) (-0.240161 -0.240161 -2.05074e+06) (-0.240161 -0.240161 -2.05074e+06)
2950          (-0.321616 -0.321616 -2.00523e+06) (-0.321616 -0.321616 -2.00523e+06) (-0.321616 -0.321616 -2.00523e+06) (-0.321616 -0.321616 -2.00523e+06) (-0.321616 -0.321616 -2.00523e+06) (-0.321616 -0.321616 -2.00523e+06) (-0.240161 -0.240161 -2.05074e+06) (-0.240161 -0.240161 -2.05074e+06) (-0.240161 -0.240161 -2.05074e+06) (-0.240161 -0.240161 -2.05074e+06) (-0.240161 -0.240161 -2.05074e+06)
3000          (-0.321616 -0.321616 -2.00523e+06) (-0.321616 -0.321616 -2.00523e+06) (-0.321616 -0.321616 -2.00523e+06) (-0.321616 -0.321616 -2.00523e+06) (-0.321616 -0.321616 -2.00523e+06) (-0.321616 -0.321616 -2.00523e+06) (-0.240161 -0.240161 -2.05074e+06) (-0.240161 -0.240161 -2.05074e+06) (-0.240161 -0.240161 -2.05074e+06) (-0.240161 -0.240161 -2.05074e+06) (-0.240161 -0.240161 -2.05074e+06)
3050          (-0.321616 -0.321616 -2.00523e+06) (-0.321616 -0.321616 -2.00523e+06) (-0.321616 -0.321616 -2.00523e+06) (-0.321616 -0.321616 -2.00523e+06) (-0.321616 -0.321616 -2.00523e+06) (-0.321616 -0.321616 -2.00523e+06) (-0.240161 -0.240161 -2.05074e+06) (-0.240161 -0.240161 -2.05074e+06) (-0.240161 -0.240161 -2.05074e+06) (-0.240161 -0.240161 -2.05074e+06) (-0.240161 -0.240161 -2.05074e+06)
3100          (-0.321616 -0.321616 -2.00523e+06) (-0.321616 -0.321616 -2.00523e+06) (-0.321616 -0.321616 -2.00523e+06) (-0.321616 -0.321616 -2.00523e+06) (-0.321616 -0.321616 -2.00523e+06) (-0.321616 -0.321616 -2.00523e+06) (-0.240161 -0.240161 -2.05074e+06) (-0.240161 -0.240161 -2.05074e+06) (-0.240161 -0.240161 -2.05074e+06) (-0.240161 -0.240161 -2.05074e+06) (-0.240161 -0.240161 -2.05074e+06)
3150          (-0.321616 -0.321616 -2.00523e+06) (-0.321616 -0.321616 -2.00523e+06) (-0.321616 -0.321616 -2.00523e+06) (-0.321616 -0.321616 -2.00523e+06) (-0.321616 -0.321616 -2.00523e+06) (-0.321616 -0.321616 -2.00523e+06) (-0.240161 -0.240161 -2.05074e+06) (-0.240161 -0.240161 -2.05074e+06) (-0.240161 -0.240161 -2.05074e+06) (-0.240161 -0.240161 -2.05074e+06) (-0.240161 -0.240161 -2.05074e+06)
3200          (-0.321616 -0.321616 -2.00523e+06) (-0.321616 -0.321616 -2.00523e+06) (-0.321616 -0.321616 -2.00523e+06) (-0.321616 -0.321616 -2.00523e+06) (-0.321616 -0.321616 -2.00523e+06) (-0.321616 -0.321616 -2.00523e+06) (-0.240161 -0.240161 -2.05074e+06) (-0.240161 -0.240161 -2.05074e+06) (-0.240161 -0.240161 -2.05074e+06) (-0.240161 -0.240161 -2.05074e+06) (-0.240161 -0.240161 -2.05074e+06)
3250          (-0.321616 -0.321616 -2.00523e+06) (-0.321616 -0.321616 -2.00523e+06) (-0.321616 -0.321616 -2.00523e+06) (-0.321616 -0.321616 -2.00523e+06) (-0.321616 -0.321616 -2.00523e+06) (-0.321616 -0.321616 -2.00523e+06) (-0.240161 -0.240161 -2.05074e+06) (-0.240161 -0.240161 -2.05074e+06) (-0.240161 -0.240161 -2.05074e+06) (-0.240161 -0.240161 -2.05074e+06) (-0.240161 -0.240161 -2.05074e+06)
3300          (-0.321616 -0.321616 -2.00523e+06) (-0.321616 -0.321616 -2.00523e+06) (-0.321616 -0.321616 -2.00523e+06) (-0.321616 -0.321616 -2.00523e+06) (-0.321616 -0.321616 -2.00523e+06) (-0.321616 -0.321616 -2.00523e+06) (-0.240161 -0.240161 -2.05074e+06) (-0.240161 -0.240161 -2.05074e+06) (-0.240161 -0.240161 -2.05074e+06) (-0.240161 -0.240161 -2.05074e+06) (-0.240161 -0.240161 -2.05074e+06)
3350          (-0.321616 -0.321616 -2.00523e+06) (-0.321616 -0.321616 -2.00523e+06) (-0.321616 -0.321616 -2.00523e+06) (-0.321616 -0.321616 -2.00523e+06) (-0.321616 -0.321616 -2.00523e+06) (-0.321616 -0.321616 -2.00523e+06) (-0.240161 -0.240161 -2.05074e+06) (-0.240161 -0.240161 -2.05074e+06) (-0.240161 -0.240161 -2.05074e+06) (-0.240161 -0.240161 -2.05074e+06) (-0.240161 -0.240161 -2.05074e+06)
3400          (-0.321616 -0.321616 -2.00523e+06) (-0.321616 -0.321616 -2.00523e+06) (-0.321616 -0.321616 -2.00523e+06) (-0.321616 -0.321616 -2.00523e+06) (-0.321616 -0.321616 -2.00523e+06) (-0.321616 -0.321616 -2.00523e+06) (-0.240161 -0.240161 -2.05074e+06) (-0.240161 -0.240161 -2.05074e+06) (-0.240161 -0.240161 -2.05074e+06) (-0.240161 -0.240161 -2.05074e+06) (-0.240161 -0.240161 -2.05074e+06)
3450          (-0.321616 -0.321616 -2.00523e+06) (-0.321616 -0.321616 -2.00523e+06) (-0.321616 -0.321616 -2.00523e+06) (-0.321616 -0.321616 -2.00523e+06) (-0.321616 -0.321616 -2.00523e+06) (-0.321616 -0.321616 -2.00523e+06) (-0.240161 -0.240161 -2.05074e+06) (-0.240161 -0.240161 -2.05074e+06) (-0.240161 -0.240161 -2.05074e+06) (-0.240161 -0.240161 -2.05074e+06) (-0.240161 -0.240161 -2.05074e+06)
3500          (-0.321616 -0.321616 -2.00523e+06) (-0.321616 -0.321616 -2.00523e+06) (-0.321616 -0.321616 -2.00523e+06) (-0.321616 -0.321616 -2.00523e+06) (-0.321616 -0.321616 -2.00523e+06) (-0.321616 -0.321616 -2.00523e+06) (-0.240161 -0.240161 -2.05074e+06) (-0.240161 -0.240161 -2.05074e+06) (-0.240161 -0.240161 -2.05074e+06) (-0.240161 -0.240161 -2.05074e+06) (-0.240161 -0.240161 -2.05074e+06)
3550          (-0.321616 -0.321616 -2.00523e+06) (-0.321616 -0.321616 -2.00523e+06) (-0.321616 -0.321616 -2.00523e+06) (-0.321616 -0.321616 -2.00523e+06) (-0.321616 -0.321616 -2.00523e+06) (-0.321616 -0.321616 -2.00523e+06) (-0.240161 -0.240161 -2.05074e+06) (-0.240161 -0.240161 -2.05074e+06) (-0.240161 -0.240161 -2.05074e+06) (-0.240161 -0.240161 -2.05074e+06) (-0.240161 -0.240161 -2.05074e+06)
3600          (-0.321616 -0.321616 -2.00523e+06) (-0.321616 -0.321616 -2.00523e+06) (-0.321616 -0.321616 -2.00523e+06) (-0.321616 -0.321616 -2.00523e+06) (-0.321616 -0.321616 -2.00523e+06) (-0.321616 -0.321616 -2.00523e+06) (-0.240161 -0.240161 -2.05074e+06) (-0.240161 -0.240161 -2.05074e+06) (-0.240161 -0.240161 -2.05074e+06) (-0.240161 -0.240161 -2.05074e+06) (-0.240161 -0.240161 -2.05074e+06)
3650          (-0.321616 -0.321616 -2.00523e+06) (-0.321616 -0.321616 -2.00523e+06) (-0.321616 -0.321616 -2.00523e+06) (-0.321616 -0.321616 -2.00523e+06) (-0.321616 -0.321616 -2.00523e+06) (-0.321616 -0.321616 -2.00523e+06) (-0.240161 -0.240161 -2.05074e+06) (-0.240161 -0.240161 -2.05074e+06) (-0.240161 -0.240161 -2.05074e+06) (-0.240161 -0.240161 -2.05074e+06) (-0.240161 -0.240161 -2.05074e+06)
3700          (-0.321616 -0.321616 -2.00523e+06) (-0.321616 -0.321616 -2.00523e+06) (-0.321616 -0.321616 -2.00523e+06) (-0.321616 -0.321616 -2.00523e+06) (-0.321616 -0.321616 -2.00523e+06) (-0.321616 -0.321616 -2.00523e+06) (-0.240161 -0.240161 -2.05074e+06) (-0.240161 -0.240161 -2.05074e+06) (-0.240161 -0.240161 -2.05074e+06) (-0.240161 -0.240161 -2.05074e+06) (-0.240161 -0.240161 -2.05074e+06)