# Probe 0 (0.0015 0.0015 0)
# Probe 1 (0.0015 0.0015 0.01)
# Probe 2 (0.0015 0.0015 0.02)
# Probe 3 (0.0015 0.0015 0.03)
# Probe 4 (0.0015 0.0015 0.04)
# Probe 5 (0.0015 0.0015 0.05)
# Probe 6 (0.0015 0.0015 0.06)
# Probe 7 (0.0015 0.0015 0.07)
# Probe 8 (0.0015 0.0015 0.08)
# Probe 9 (0.0015 0.0015 0.09)
# Probe 10 (0.0015 0.0015 0.1)
# Time        0             1             2             3             4             5             6             7             8             9             10           
50            (0.0166242 0.0166242 2730.87) (0.0166242 0.0166242 2730.87) (0.0166242 0.0166242 2730.87) (0.0166242 0.0166242 2730.87) (0.0166242 0.0166242 2730.87) (0.0166242 0.0166242 2730.87) (0.00737566 0.00737566 2449.69) (0.00737566 0.00737566 2449.69) (0.00737566 0.00737566 2449.69) (0.00737566 0.00737566 2449.69) (0.00737566 0.00737566 2449.69)
100           (-0.00412833 -0.00412833 2495.5) (-0.00412833 -0.00412833 2495.5) (-0.00412833 -0.00412833 2495.5) (-0.00412833 -0.00412833 2495.5) (-0.00412833 -0.00412833 2495.5) (-0.00412833 -0.00412833 2495.5) (-0.00716741 -0.00716741 2548.53) (-0.00716741 -0.00716741 2548.53) (-0.00716741 -0.00716741 2548.53) (-0.00716741 -0.00716741 2548.53) (-0.00716741 -0.00716741 2548.53)
150           (-0.00233959 -0.00233959 2467.47) (-0.00233959 -0.00233959 2467.47) (-0.00233959 -0.00233959 2467.47) (-0.00233959 -0.00233959 2467.47) (-0.00233959 -0.00233959 2467.47) (-0.00233959 -0.00233959 2467.47) (-0.00442287 -0.00442287 2552.3) (-0.00442287 -0.00442287 2552.3) (-0.00442287 -0.00442287 2552.3) (-0.00442287 -0.00442287 2552.3) (-0.00442287 -0.00442287 2552.3)
200           (-8.51072e-05 -8.51072e-05 2461.64) (-8.51072e-05 -8.51072e-05 2461.64) (-8.51072e-05 -8.51072e-05 2461.64) (-8.51072e-05 -8.51072e-05 2461.64) (-8.51072e-05 -8.51072e-05 2461.64) (-8.51072e-05 -8.51072e-05 2461.64) (0.000102331 0.000102331 2552.36) (0.000102331 0.000102331 2552.36) (0.000102331 0.000102331 2552.36) (0.000102331 0.000102331 2552.36) (0.000102331 0.000102331 2552.36)
250           (0.00103917 0.00103917 2460.22) (0.00103917 0.00103917 2460.22) (0.00103917 0.00103917 2460.22) (0.00103917 0.00103917 2460.22) (0.00103917 0.00103917 2460.22) (0.00103917 0.00103917 2460.22) (0.0011239 0.0011239 2552.26) (0.0011239 0.0011239 2552.26) (0.0011239 0.0011239 2552.26) (0.0011239 0.0011239 2552.26) (0.0011239 0.0011239 2552.26)
300           (0.000619841 0.000619841 2459.87) (0.000619841 0.000619841 2459.87) (0.000619841 0.000619841 2459.87) (0.000619841 0.000619841 2459.87) (0.000619841 0.000619841 2459.87) (0.000619841 0.000619841 2459.87) (-7.37481e-05 -7.37481e-05 2552.2) (-7.37481e-05 -7.37481e-05 2552.2) (-7.37481e-05 -7.37481e-05 2552.2) (-7.37481e-05 -7.37481e-05 2552.2) (-7.37481e-05 -7.37481e-05 2552.2)
350           (0.000687919 0.000687919 2459.77) (0.000687919 0.000687919 2459.77) (0.000687919 0.000687919 2459.77) (0.000687919 0.000687919 2459.77) (0.000687919 0.000687919 2459.77) (0.000687919 0.000687919 2459.77) (9.57968e-05 9.57968e-05 2552.2) (9.57968e-05 9.57968e-05 2552.2) (9.57968e-05 9.57968e-05 2552.2) (9.57968e-05 9.57968e-05 2552.2) (9.57968e-05 9.57968e-05 2552.2)
400           (0.000673459 0.000673459 2459.73) (0.000673459 0.000673459 2459.73) (0.000673459 0.000673459 2459.73) (0.000673459 0.000673459 2459.73) (0.000673459 0.000673459 2459.73) (0.000673459 0.000673459 2459.73) (9.52096e-05 9.52096e-05 2552.2) (9.52096e-05 9.52096e-05 2552.2) (9.52096e-05 9.52096e-05 2552.2) (9.52096e-05 9.52096e-05 2552.2) (9.52096e-05 9.52096e-05 2552.2)
450           (0.000673459 0.000673459 2459.73) (0.000673459 0.000673459 2459.73) (0.000673459 0.000673459 2459.73) (0.000673459 0.000673459 2459.73) (0.000673459 0.000673459 2459.73) (0.000673459 0.000673459 2459.73) (9.52096e-05 9.52096e-05 2552.2) (9.52096e-05 9.52096e-05 2552.2) (9.52096e-05 9.52096e-05 2552.2) (9.52096e-05 9.52096e-05 2552.2) (9.52096e-05 9.52096e-05 2552.2)
500           (0.000673459 0.000673459 2459.73) (0.000673459 0.000673459 2459.73) (0.000673459 0.000673459 2459.73) (0.000673459 0.000673459 2459.73) (0.000673459 0.000673459 2459.73) (0.000673459 0.000673459 2459.73) (9.52096e-05 9.52096e-05 2552.2) (9.52096e-05 9.52096e-05 2552.2) (9.52096e-05 9.52096e-05 2552.2) (9.52096e-05 9.52096e-05 2552.2) (9.52096e-05 9.52096e-05 2552.2)
550           (0.000673459 0.000673459 2459.73) (0.000673459 0.000673459 2459.73) (0.000673459 0.000673459 2459.73) (0.000673459 0.000673459 2459.73) (0.000673459 0.000673459 2459.73) (0.000673459 0.000673459 2459.73) (9.52096e-05 9.52096e-05 2552.2) (9.52096e-05 9.52096e-05 2552.2) (9.52096e-05 9.52096e-05 2552.2) (9.52096e-05 9.52096e-05 2552.2) (9.52096e-05 9.52096e-05 2552.2)
600           (0.000673459 0.000673459 2459.73) (0.000673459 0.000673459 2459.73) (0.000673459 0.000673459 2459.73) (0.000673459 0.000673459 2459.73) (0.000673459 0.000673459 2459.73) (0.000673459 0.000673459 2459.73) (9.52096e-05 9.52096e-05 2552.2) (9.52096e-05 9.52096e-05 2552.2) (9.52096e-05 9.52096e-05 2552.2) (9.52096e-05 9.52096e-05 2552.2) (9.52096e-05 9.52096e-05 2552.2)
650           (0.000673459 0.000673459 2459.73) (0.000673459 0.000673459 2459.73) (0.000673459 0.000673459 2459.73) (0.000673459 0.000673459 2459.73) (0.000673459 0.000673459 2459.73) (0.000673459 0.000673459 2459.73) (9.52096e-05 9.52096e-05 2552.2) (9.52096e-05 9.52096e-05 2552.2) (9.52096e-05 9.52096e-05 2552.2) (9.52096e-05 9.52096e-05 2552.2) (9.52096e-05 9.52096e-05 2552.2)
700           (0.000673459 0.000673459 2459.73) (0.000673459 0.000673459 2459.73) (0.000673459 0.000673459 2459.73) (0.000673459 0.000673459 2459.73) (0.000673459 0.000673459 2459.73) (0.000673459 0.000673459 2459.73) (9.52096e-05 9.52096e-05 2552.2) (9.52096e-05 9.52096e-05 2552.2) (9.52096e-05 9.52096e-05 2552.2) (9.52096e-05 9.52096e-05 2552.2) (9.52096e-05 9.52096e-05 2552.2)
750           (0.000673459 0.000673459 2459.73) (0.000673459 0.000673459 2459.73) (0.000673459 0.000673459 2459.73) (0.000673459 0.000673459 2459.73) (0.000673459 0.000673459 2459.73) (0.000673459 0.000673459 2459.73) (9.52096e-05 9.52096e-05 2552.2) (9.52096e-05 9.52096e-05 2552.2) (9.52096e-05 9.52096e-05 2552.2) (9.52096e-05 9.52096e-05 2552.2) (9.52096e-05 9.52096e-05 2552.2)
800           (0.000673459 0.000673459 2459.73) (0.000673459 0.000673459 2459.73) (0.000673459 0.000673459 2459.73) (0.000673459 0.000673459 2459.73) (0.000673459 0.000673459 2459.73) (0.000673459 0.000673459 2459.73) (9.52096e-05 9.52096e-05 2552.2) (9.52096e-05 9.52096e-05 2552.2) (9.52096e-05 9.52096e-05 2552.2) (9.52096e-05 9.52096e-05 2552.2) (9.52096e-05 9.52096e-05 2552.2)
850           (0.000673459 0.000673459 2459.73) (0.000673459 0.000673459 2459.73) (0.000673459 0.000673459 2459.73) (0.000673459 0.000673459 2459.73) (0.000673459 0.000673459 2459.73) (0.000673459 0.000673459 2459.73) (9.52096e-05 9.52096e-05 2552.2) (9.52096e-05 9.52096e-05 2552.2) (9.52096e-05 9.52096e-05 2552.2) (9.52096e-05 9.52096e-05 2552.2) (9.52096e-05 9.52096e-05 2552.2)
900           (0.000673459 0.000673459 2459.73) (0.000673459 0.000673459 2459.73) (0.000673459 0.000673459 2459.73) (0.000673459 0.000673459 2459.73) (0.000673459 0.000673459 2459.73) (0.000673459 0.000673459 2459.73) (9.52096e-05 9.52096e-05 2552.2) (9.52096e-05 9.52096e-05 2552.2) (9.52096e-05 9.52096e-05 2552.2) (9.52096e-05 9.52096e-05 2552.2) (9.52096e-05 9.52096e-05 2552.2)
950           (0.000673459 0.000673459 2459.73) (0.000673459 0.000673459 2459.73) (0.000673459 0.000673459 2459.73) (0.000673459 0.000673459 2459.73) (0.000673459 0.000673459 2459.73) (0.000673459 0.000673459 2459.73) (9.52096e-05 9.52096e-05 2552.2) (9.52096e-05 9.52096e-05 2552.2) (9.52096e-05 9.52096e-05 2552.2) (9.52096e-05 9.52096e-05 2552.2) (9.52096e-05 9.52096e-05 2552.2)
1000          (0.000673459 0.000673459 2459.73) (0.000673459 0.000673459 2459.73) (0.000673459 0.000673459 2459.73) (0.000673459 0.000673459 2459.73) (0.000673459 0.000673459 2459.73) (0.000673459 0.000673459 2459.73) (9.52096e-05 9.52096e-05 2552.2) (9.52096e-05 9.52096e-05 2552.2) (9.52096e-05 9.52096e-05 2552.2) (9.52096e-05 9.52096e-05 2552.2) (9.52096e-05 9.52096e-05 2552.2)
1050          (0.000673459 0.000673459 2459.73) (0.000673459 0.000673459 2459.73) (0.000673459 0.000673459 2459.73) (0.000673459 0.000673459 2459.73) (0.000673459 0.000673459 2459.73) (0.000673459 0.000673459 2459.73) (9.52096e-05 9.52096e-05 2552.2) (9.52096e-05 9.52096e-05 2552.2) (9.52096e-05 9.52096e-05 2552.2) (9.52096e-05 9.52096e-05 2552.2) (9.52096e-05 9.52096e-05 2552.2)
1100          (0.000673459 0.000673459 2459.73) (0.000673459 0.000673459 2459.73) (0.000673459 0.000673459 2459.73) (0.000673459 0.000673459 2459.73) (0.000673459 0.000673459 2459.73) (0.000673459 0.000673459 2459.73) (9.52096e-05 9.52096e-05 2552.2) (9.52096e-05 9.52096e-05 2552.2) (9.52096e-05 9.52096e-05 2552.2) (9.52096e-05 9.52096e-05 2552.2) (9.52096e-05 9.52096e-05 2552.2)
1150          (0.000673459 0.000673459 2459.73) (0.000673459 0.000673459 2459.73) (0.000673459 0.000673459 2459.73) (0.000673459 0.000673459 2459.73) (0.000673459 0.000673459 2459.73) (0.000673459 0.000673459 2459.73) (9.52096e-05 9.52096e-05 2552.2) (9.52096e-05 9.52096e-05 2552.2) (9.52096e-05 9.52096e-05 2552.2) (9.52096e-05 9.52096e-05 2552.2) (9.52096e-05 9.52096e-05 2552.2)
1200          (0.000673459 0.000673459 2459.73) (0.000673459 0.000673459 2459.73) (0.000673459 0.000673459 2459.73) (0.000673459 0.000673459 2459.73) (0.000673459 0.000673459 2459.73) (0.000673459 0.000673459 2459.73) (9.52096e-05 9.52096e-05 2552.2) (9.52096e-05 9.52096e-05 2552.2) (9.52096e-05 9.52096e-05 2552.2) (9.52096e-05 9.52096e-05 2552.2) (9.52096e-05 9.52096e-05 2552.2)
1250          (0.000673459 0.000673459 2459.73) (0.000673459 0.000673459 2459.73) (0.000673459 0.000673459 2459.73) (0.000673459 0.000673459 2459.73) (0.000673459 0.000673459 2459.73) (0.000673459 0.000673459 2459.73) (9.52096e-05 9.52096e-05 2552.2) (9.52096e-05 9.52096e-05 2552.2) (9.52096e-05 9.52096e-05 2552.2) (9.52096e-05 9.52096e-05 2552.2) (9.52096e-05 9.52096e-05 2552.2)
1300          (0.000673459 0.000673459 2459.73) (0.000673459 0.000673459 2459.73) (0.000673459 0.000673459 2459.73) (0.000673459 0.000673459 2459.73) (0.000673459 0.000673459 2459.73) (0.000673459 0.000673459 2459.73) (9.52096e-05 9.52096e-05 2552.2) (9.52096e-05 9.52096e-05 2552.2) (9.52096e-05 9.52096e-05 2552.2) (9.52096e-05 9.52096e-05 2552.2) (9.52096e-05 9.52096e-05 2552.2)
1350          (0.000673459 0.000673459 2459.73) (0.000673459 0.000673459 2459.73) (0.000673459 0.000673459 2459.73) (0.000673459 0.000673459 2459.73) (0.000673459 0.000673459 2459.73) (0.000673459 0.000673459 2459.73) (9.52096e-05 9.52096e-05 2552.2) (9.52096e-05 9.52096e-05 2552.2) (9.52096e-05 9.52096e-05 2552.2) (9.52096e-05 9.52096e-05 2552.2) (9.52096e-05 9.52096e-05 2552.2)
1400          (0.000673459 0.000673459 2459.73) (0.000673459 0.000673459 2459.73) (0.000673459 0.000673459 2459.73) (0.000673459 0.000673459 2459.73) (0.000673459 0.000673459 2459.73) (0.000673459 0.000673459 2459.73) (9.52096e-05 9.52096e-05 2552.2) (9.52096e-05 9.52096e-05 2552.2) (9.52096e-05 9.52096e-05 2552.2) (9.52096e-05 9.52096e-05 2552.2) (9.52096e-05 9.52096e-05 2552.2)
1450          (0.000673459 0.000673459 2459.73) (0.000673459 0.000673459 2459.73) (0.000673459 0.000673459 2459.73) (0.000673459 0.000673459 2459.73) (0.000673459 0.000673459 2459.73) (0.000673459 0.000673459 2459.73) (9.52096e-05 9.52096e-05 2552.2) (9.52096e-05 9.52096e-05 2552.2) (9.52096e-05 9.52096e-05 2552.2) (9.52096e-05 9.52096e-05 2552.2) (9.52096e-05 9.52096e-05 2552.2)
1500          (0.000673459 0.000673459 2459.73) (0.000673459 0.000673459 2459.73) (0.000673459 0.000673459 2459.73) (0.000673459 0.000673459 2459.73) (0.000673459 0.000673459 2459.73) (0.000673459 0.000673459 2459.73) (9.52096e-05 9.52096e-05 2552.2) (9.52096e-05 9.52096e-05 2552.2) (9.52096e-05 9.52096e-05 2552.2) (9.52096e-05 9.52096e-05 2552.2) (9.52096e-05 9.52096e-05 2552.2)
1550          (0.000673459 0.000673459 2459.73) (0.000673459 0.000673459 2459.73) (0.000673459 0.000673459 2459.73) (0.000673459 0.000673459 2459.73) (0.000673459 0.000673459 2459.73) (0.000673459 0.000673459 2459.73) (9.52096e-05 9.52096e-05 2552.2) (9.52096e-05 9.52096e-05 2552.2) (9.52096e-05 9.52096e-05 2552.2) (9.52096e-05 9.52096e-05 2552.2) (9.52096e-05 9.52096e-05 2552.2)
1600          (0.000673459 0.000673459 2459.73) (0.000673459 0.000673459 2459.73) (0.000673459 0.000673459 2459.73) (0.000673459 0.000673459 2459.73) (0.000673459 0.000673459 2459.73) (0.000673459 0.000673459 2459.73) (9.52096e-05 9.52096e-05 2552.2) (9.52096e-05 9.52096e-05 2552.2) (9.52096e-05 9.52096e-05 2552.2) (9.52096e-05 9.52096e-05 2552.2) (9.52096e-05 9.52096e-05 2552.2)
1650          (0.000673459 0.000673459 2459.73) (0.000673459 0.000673459 2459.73) (0.000673459 0.000673459 2459.73) (0.000673459 0.000673459 2459.73) (0.000673459 0.000673459 2459.73) (0.000673459 0.000673459 2459.73) (9.52096e-05 9.52096e-05 2552.2) (9.52096e-05 9.52096e-05 2552.2) (9.52096e-05 9.52096e-05 2552.2) (9.52096e-05 9.52096e-05 2552.2) (9.52096e-05 9.52096e-05 2552.2)
1700          (0.000673459 0.000673459 2459.73) (0.000673459 0.000673459 2459.73) (0.000673459 0.000673459 2459.73) (0.000673459 0.000673459 2459.73) (0.000673459 0.000673459 2459.73) (0.000673459 0.000673459 2459.73) (9.52096e-05 9.52096e-05 2552.2) (9.52096e-05 9.52096e-05 2552.2) (9.52096e-05 9.52096e-05 2552.2) (9.52096e-05 9.52096e-05 2552.2) (9.52096e-05 9.52096e-05 2552.2)
1750          (0.000673459 0.000673459 2459.73) (0.000673459 0.000673459 2459.73) (0.000673459 0.000673459 2459.73) (0.000673459 0.000673459 2459.73) (0.000673459 0.000673459 2459.73) (0.000673459 0.000673459 2459.73) (9.52096e-05 9.52096e-05 2552.2) (9.52096e-05 9.52096e-05 2552.2) (9.52096e-05 9.52096e-05 2552.2) (9.52096e-05 9.52096e-05 2552.2) (9.52096e-05 9.52096e-05 2552.2)
1800          (0.000673459 0.000673459 2459.73) (0.000673459 0.000673459 2459.73) (0.000673459 0.000673459 2459.73) (0.000673459 0.000673459 2459.73) (0.000673459 0.000673459 2459.73) (0.000673459 0.000673459 2459.73) (9.52096e-05 9.52096e-05 2552.2) (9.52096e-05 9.52096e-05 2552.2) (9.52096e-05 9.52096e-05 2552.2) (9.52096e-05 9.52096e-05 2552.2) (9.52096e-05 9.52096e-05 2552.2)
1850          (0.000673459 0.000673459 2459.73) (0.000673459 0.000673459 2459.73) (0.000673459 0.000673459 2459.73) (0.000673459 0.000673459 2459.73) (0.000673459 0.000673459 2459.73) (0.000673459 0.000673459 2459.73) (9.52096e-05 9.52096e-05 2552.2) (9.52096e-05 9.52096e-05 2552.2) (9.52096e-05 9.52096e-05 2552.2) (9.52096e-05 9.52096e-05 2552.2) (9.52096e-05 9.52096e-05 2552.2)
1900          (0.000673459 0.000673459 2459.73) (0.000673459 0.000673459 2459.73) (0.000673459 0.000673459 2459.73) (0.000673459 0.000673459 2459.73) (0.000673459 0.000673459 2459.73) (0.000673459 0.000673459 2459.73) (9.52096e-05 9.52096e-05 2552.2) (9.52096e-05 9.52096e-05 2552.2) (9.52096e-05 9.52096e-05 2552.2) (9.52096e-05 9.52096e-05 2552.2) (9.52096e-05 9.52096e-05 2552.2)
1950          (0.000673459 0.000673459 2459.73) (0.000673459 0.000673459 2459.73) (0.000673459 0.000673459 2459.73) (0.000673459 0.000673459 2459.73) (0.000673459 0.000673459 2459.73) (0.000673459 0.000673459 2459.73) (9.52096e-05 9.52096e-05 2552.2) (9.52096e-05 9.52096e-05 2552.2) (9.52096e-05 9.52096e-05 2552.2) (9.52096e-05 9.52096e-05 2552.2) (9.52096e-05 9.52096e-05 2552.2)
2000          (0.000673459 0.000673459 2459.73) (0.000673459 0.000673459 2459.73) (0.000673459 0.000673459 2459.73) (0.000673459 0.000673459 2459.73) (0.000673459 0.000673459 2459.73) (0.000673459 0.000673459 2459.73) (9.52096e-05 9.52096e-05 2552.2) (9.52096e-05 9.52096e-05 2552.2) (9.52096e-05 9.52096e-05 2552.2) (9.52096e-05 9.52096e-05 2552.2) (9.52096e-05 9.52096e-05 2552.2)
2050          (0.000673459 0.000673459 2459.73) (0.000673459 0.000673459 2459.73) (0.000673459 0.000673459 2459.73) (0.000673459 0.000673459 2459.73) (0.000673459 0.000673459 2459.73) (0.000673459 0.000673459 2459.73) (9.52096e-05 9.52096e-05 2552.2) (9.52096e-05 9.52096e-05 2552.2) (9.52096e-05 9.52096e-05 2552.2) (9.52096e-05 9.52096e-05 2552.2) (9.52096e-05 9.52096e-05 2552.2)
2100          (0.000673459 0.000673459 2459.73) (0.000673459 0.000673459 2459.73) (0.000673459 0.000673459 2459.73) (0.000673459 0.000673459 2459.73) (0.000673459 0.000673459 2459.73) (0.000673459 0.000673459 2459.73) (9.52096e-05 9.52096e-05 2552.2) (9.52096e-05 9.52096e-05 2552.2) (9.52096e-05 9.52096e-05 2552.2) (9.52096e-05 9.52096e-05 2552.2) (9.52096e-05 9.52096e-05 2552.2)
2150          (0.000673459 0.000673459 2459.73) (0.000673459 0.000673459 2459.73) (0.000673459 0.000673459 2459.73) (0.000673459 0.000673459 2459.73) (0.000673459 0.000673459 2459.73) (0.000673459 0.000673459 2459.73) (9.52096e-05 9.52096e-05 2552.2) (9.52096e-05 9.52096e-05 2552.2) (9.52096e-05 9.52096e-05 2552.2) (9.52096e-05 9.52096e-05 2552.2) (9.52096e-05 9.52096e-05 2552.2)
2200          (0.000673459 0.000673459 2459.73) (0.000673459 0.000673459 2459.73) (0.000673459 0.000673459 2459.73) (0.000673459 0.000673459 2459.73) (0.000673459 0.000673459 2459.73) (0.000673459 0.000673459 2459.73) (9.52096e-05 9.52096e-05 2552.2) (9.52096e-05 9.52096e-05 2552.2) (9.52096e-05 9.52096e-05 2552.2) (9.52096e-05 9.52096e-05 2552.2) (9.52096e-05 9.52096e-05 2552.2)
2250          (0.000673459 0.000673459 2459.73) (0.000673459 0.000673459 2459.73) (0.000673459 0.000673459 2459.73) (0.000673459 0.000673459 2459.73) (0.000673459 0.000673459 2459.73) (0.000673459 0.000673459 2459.73) (9.52096e-05 9.52096e-05 2552.2) (9.52096e-05 9.52096e-05 2552.2) (9.52096e-05 9.52096e-05 2552.2) (9.52096e-05 9.52096e-05 2552.2) (9.52096e-05 9.52096e-05 2552.2)
2300          (0.000673459 0.000673459 2459.73) (0.000673459 0.000673459 2459.73) (0.000673459 0.000673459 2459.73) (0.000673459 0.000673459 2459.73) (0.000673459 0.000673459 2459.73) (0.000673459 0.000673459 2459.73) (9.52096e-05 9.52096e-05 2552.2) (9.52096e-05 9.52096e-05 2552.2) (9.52096e-05 9.52096e-05 2552.2) (9.52096e-05 9.52096e-05 2552.2) (9.52096e-05 9.52096e-05 2552.2)
2350          (0.000673459 0.000673459 2459.73) (0.000673459 0.000673459 2459.73) (0.000673459 0.000673459 2459.73) (0.000673459 0.000673459 2459.73) (0.000673459 0.000673459 2459.73) (0.000673459 0.000673459 2459.73) (9.52096e-05 9.52096e-05 2552.2) (9.52096e-05 9.52096e-05 2552.2) (9.52096e-05 9.52096e-05 2552.2) (9.52096e-05 9.52096e-05 2552.2) (9.52096e-05 9.52096e-05 2552.2)
2400          (0.000673459 0.000673459 2459.73) (0.000673459 0.000673459 2459.73) (0.000673459 0.000673459 2459.73) (0.000673459 0.000673459 2459.73) (0.000673459 0.000673459 2459.73) (0.000673459 0.000673459 2459.73) (9.52096e-05 9.52096e-05 2552.2) (9.52096e-05 9.52096e-05 2552.2) (9.52096e-05 9.52096e-05 2552.2) (9.52096e-05 9.52096e-05 2552.2) (9.52096e-05 9.52096e-05 2552.2)
2450          (0.000673459 0.000673459 2459.73) (0.000673459 0.000673459 2459.73) (0.000673459 0.000673459 2459.73) (0.000673459 0.000673459 2459.73) (0.000673459 0.000673459 2459.73) (0.000673459 0.000673459 2459.73) (9.52096e-05 9.52096e-05 2552.2) (9.52096e-05 9.52096e-05 2552.2) (9.52096e-05 9.52096e-05 2552.2) (9.52096e-05 9.52096e-05 2552.2) (9.52096e-05 9.52096e-05 2552.2)
2500          (0.000673459 0.000673459 2459.73) (0.000673459 0.000673459 2459.73) (0.000673459 0.000673459 2459.73) (0.000673459 0.000673459 2459.73) (0.000673459 0.000673459 2459.73) (0.000673459 0.000673459 2459.73) (9.52096e-05 9.52096e-05 2552.2) (9.52096e-05 9.52096e-05 2552.2) (9.52096e-05 9.52096e-05 2552.2) (9.52096e-05 9.52096e-05 2552.2) (9.52096e-05 9.52096e-05 2552.2)
2550          (0.000673459 0.000673459 2459.73) (0.000673459 0.000673459 2459.73) (0.000673459 0.000673459 2459.73) (0.000673459 0.000673459 2459.73) (0.000673459 0.000673459 2459.73) (0.000673459 0.000673459 2459.73) (9.52096e-05 9.52096e-05 2552.2) (9.52096e-05 9.52096e-05 2552.2) (9.52096e-05 9.52096e-05 2552.2) (9.52096e-05 9.52096e-05 2552.2) (9.52096e-05 9.52096e-05 2552.2)
2600          (0.000673459 0.000673459 2459.73) (0.000673459 0.000673459 2459.73) (0.000673459 0.000673459 2459.73) (0.000673459 0.000673459 2459.73) (0.000673459 0.000673459 2459.73) (0.000673459 0.000673459 2459.73) (9.52096e-05 9.52096e-05 2552.2) (9.52096e-05 9.52096e-05 2552.2) (9.52096e-05 9.52096e-05 2552.2) (9.52096e-05 9.52096e-05 2552.2) (9.52096e-05 9.52096e-05 2552.2)
2650          (0.000673459 0.000673459 2459.73) (0.000673459 0.000673459 2459.73) (0.000673459 0.000673459 2459.73) (0.000673459 0.000673459 2459.73) (0.000673459 0.000673459 2459.73) (0.000673459 0.000673459 2459.73) (9.52096e-05 9.52096e-05 2552.2) (9.52096e-05 9.52096e-05 2552.2) (9.52096e-05 9.52096e-05 2552.2) (9.52096e-05 9.52096e-05 2552.2) (9.52096e-05 9.52096e-05 2552.2)
2700          (0.000673459 0.000673459 2459.73) (0.000673459 0.000673459 2459.73) (0.000673459 0.000673459 2459.73) (0.000673459 0.000673459 2459.73) (0.000673459 0.000673459 2459.73) (0.000673459 0.000673459 2459.73) (9.52096e-05 9.52096e-05 2552.2) (9.52096e-05 9.52096e-05 2552.2) (9.52096e-05 9.52096e-05 2552.2) (9.52096e-05 9.52096e-05 2552.2) (9.52096e-05 9.52096e-05 2552.2)
2750          (0.000673459 0.000673459 2459.73) (0.000673459 0.000673459 2459.73) (0.000673459 0.000673459 2459.73) (0.000673459 0.000673459 2459.73) (0.000673459 0.000673459 2459.73) (0.000673459 0.000673459 2459.73) (9.52096e-05 9.52096e-05 2552.2) (9.52096e-05 9.52096e-05 2552.2) (9.52096e-05 9.52096e-05 2552.2) (9.52096e-05 9.52096e-05 2552.2) (9.52096e-05 9.52096e-05 2552.2)
2800          (0.000673459 0.000673459 2459.73) (0.000673459 0.000673459 2459.73) (0.000673459 0.000673459 2459.73) (0.000673459 0.000673459 2459.73) (0.000673459 0.000673459 2459.73) (0.000673459 0.000673459 2459.73) (9.52096e-05 9.52096e-05 2552.2) (9.52096e-05 9.52096e-05 2552.2) (9.52096e-05 9.52096e-05 2552.2) (9.52096e-05 9.52096e-05 2552.2) (9.52096e-05 9.52096e-05 2552.2)
2850          (0.000673459 0.000673459 2459.73) (0.000673459 0.000673459 2459.73) (0.000673459 0.000673459 2459.73) (0.000673459 0.000673459 2459.73) (0.000673459 0.000673459 2459.73) (0.000673459 0.000673459 2459.73) (9.52096e-05 9.52096e-05 2552.2) (9.52096e-05 9.52096e-05 2552.2) (9.52096e-05 9.52096e-05 2552.2) (9.52096e-05 9.52096e-05 2552.2) (9.52096e-05 9.52096e-05 2552.2)
2900          (0.000673459 0.000673459 2459.73) (0.000673459 0.000673459 2459.73) (0.000673459 0.000673459 2459.73) (0.000673459 0.000673459 2459.73) (0.000673459 0.000673459 2459.73) (0.000673459 0.000673459 2459.73) (9.52096e-05 9.52096e-05 2552.2) (9.52096e-05 9.52096e-05 2552.2) (9.52096e-05 9.52096e-05 2552.2) (9.52096e-05 9.52096e-05 2552.2) (9.52096e-05 9.52096e-05 2552.2)
2950          (0.000673459 0.000673459 2459.73) (0.000673459 0.000673459 2459.73) (0.000673459 0.000673459 2459.73) (0.000673459 0.000673459 2459.73) (0.000673459 0.000673459 2459.73) (0.000673459 0.000673459 2459.73) (9.52096e-05 9.52096e-05 2552.2) (9.52096e-05 9.52096e-05 2552.2) (9.52096e-05 9.52096e-05 2552.2) (9.52096e-05 9.52096e-05 2552.2) (9.52096e-05 9.52096e-05 2552.2)
3000          (0.000673459 0.000673459 2459.73) (0.000673459 0.000673459 2459.73) (0.000673459 0.000673459 2459.73) (0.000673459 0.000673459 2459.73) (0.000673459 0.000673459 2459.73) (0.000673459 0.000673459 2459.73) (9.52096e-05 9.52096e-05 2552.2) (9.52096e-05 9.52096e-05 2552.2) (9.52096e-05 9.52096e-05 2552.2) (9.52096e-05 9.52096e-05 2552.2) (9.52096e-05 9.52096e-05 2552.2)
3050          (0.000673459 0.000673459 2459.73) (0.000673459 0.000673459 2459.73) (0.000673459 0.000673459 2459.73) (0.000673459 0.000673459 2459.73) (0.000673459 0.000673459 2459.73) (0.000673459 0.000673459 2459.73) (9.52096e-05 9.52096e-05 2552.2) (9.52096e-05 9.52096e-05 2552.2) (9.52096e-05 9.52096e-05 2552.2) (9.52096e-05 9.52096e-05 2552.2) (9.52096e-05 9.52096e-05 2552.2)
3100          (0.000673459 0.000673459 2459.73) (0.000673459 0.000673459 2459.73) (0.000673459 0.000673459 2459.73) (0.000673459 0.000673459 2459.73) (0.000673459 0.000673459 2459.73) (0.000673459 0.000673459 2459.73) (9.52096e-05 9.52096e-05 2552.2) (9.52096e-05 9.52096e-05 2552.2) (9.52096e-05 9.52096e-05 2552.2) (9.52096e-05 9.52096e-05 2552.2) (9.52096e-05 9.52096e-05 2552.2)
3150          (0.000673459 0.000673459 2459.73) (0.000673459 0.000673459 2459.73) (0.000673459 0.000673459 2459.73) (0.000673459 0.000673459 2459.73) (0.000673459 0.000673459 2459.73) (0.000673459 0.000673459 2459.73) (9.52096e-05 9.52096e-05 2552.2) (9.52096e-05 9.52096e-05 2552.2) (9.52096e-05 9.52096e-05 2552.2) (9.52096e-05 9.52096e-05 2552.2) (9.52096e-05 9.52096e-05 2552.2)
3200          (0.000673459 0.000673459 2459.73) (0.000673459 0.000673459 2459.73) (0.000673459 0.000673459 2459.73) (0.000673459 0.000673459 2459.73) (0.000673459 0.000673459 2459.73) (0.000673459 0.000673459 2459.73) (9.52096e-05 9.52096e-05 2552.2) (9.52096e-05 9.52096e-05 2552.2) (9.52096e-05 9.52096e-05 2552.2) (9.52096e-05 9.52096e-05 2552.2) (9.52096e-05 9.52096e-05 2552.2)
3250          (0.000673459 0.000673459 2459.73) (0.000673459 0.000673459 2459.73) (0.000673459 0.000673459 2459.73) (0.000673459 0.000673459 2459.73) (0.000673459 0.000673459 2459.73) (0.000673459 0.000673459 2459.73) (9.52096e-05 9.52096e-05 2552.2) (9.52096e-05 9.52096e-05 2552.2) (9.52096e-05 9.52096e-05 2552.2) (9.52096e-05 9.52096e-05 2552.2) (9.52096e-05 9.52096e-05 2552.2)
3300          (0.000673459 0.000673459 2459.73) (0.000673459 0.000673459 2459.73) (0.000673459 0.000673459 2459.73) (0.000673459 0.000673459 2459.73) (0.000673459 0.000673459 2459.73) (0.000673459 0.000673459 2459.73) (9.52096e-05 9.52096e-05 2552.2) (9.52096e-05 9.52096e-05 2552.2) (9.52096e-05 9.52096e-05 2552.2) (9.52096e-05 9.52096e-05 2552.2) (9.52096e-05 9.52096e-05 2552.2)
3350          (0.000673459 0.000673459 2459.73) (0.000673459 0.000673459 2459.73) (0.000673459 0.000673459 2459.73) (0.000673459 0.000673459 2459.73) (0.000673459 0.000673459 2459.73) (0.000673459 0.000673459 2459.73) (9.52096e-05 9.52096e-05 2552.2) (9.52096e-05 9.52096e-05 2552.2) (9.52096e-05 9.52096e-05 2552.2) (9.52096e-05 9.52096e-05 2552.2) (9.52096e-05 9.52096e-05 2552.2)
3400          (0.000673459 0.000673459 2459.73) (0.000673459 0.000673459 2459.73) (0.000673459 0.000673459 2459.73) (0.000673459 0.000673459 2459.73) (0.000673459 0.000673459 2459.73) (0.000673459 0.000673459 2459.73) (9.52096e-05 9.52096e-05 2552.2) (9.52096e-05 9.52096e-05 2552.2) (9.52096e-05 9.52096e-05 2552.2) (9.52096e-05 9.52096e-05 2552.2) (9.52096e-05 9.52096e-05 2552.2)
3450          (0.000673459 0.000673459 2459.73) (0.000673459 0.000673459 2459.73) (0.000673459 0.000673459 2459.73) (0.000673459 0.000673459 2459.73) (0.000673459 0.000673459 2459.73) (0.000673459 0.000673459 2459.73) (9.52096e-05 9.52096e-05 2552.2) (9.52096e-05 9.52096e-05 2552.2) (9.52096e-05 9.52096e-05 2552.2) (9.52096e-05 9.52096e-05 2552.2) (9.52096e-05 9.52096e-05 2552.2)
3500          (0.000673459 0.000673459 2459.73) (0.000673459 0.000673459 2459.73) (0.000673459 0.000673459 2459.73) (0.000673459 0.000673459 2459.73) (0.000673459 0.000673459 2459.73) (0.000673459 0.000673459 2459.73) (9.52096e-05 9.52096e-05 2552.2) (9.52096e-05 9.52096e-05 2552.2) (9.52096e-05 9.52096e-05 2552.2) (9.52096e-05 9.52096e-05 2552.2) (9.52096e-05 9.52096e-05 2552.2)
3550          (0.000673459 0.000673459 2459.73) (0.000673459 0.000673459 2459.73) (0.000673459 0.000673459 2459.73) (0.000673459 0.000673459 2459.73) (0.000673459 0.000673459 2459.73) (0.000673459 0.000673459 2459.73) (9.52096e-05 9.52096e-05 2552.2) (9.52096e-05 9.52096e-05 2552.2) (9.52096e-05 9.52096e-05 2552.2) (9.52096e-05 9.52096e-05 2552.2) (9.52096e-05 9.52096e-05 2552.2)
3600          (0.000673459 0.000673459 2459.73) (0.000673459 0.000673459 2459.73) (0.000673459 0.000673459 2459.73) (0.000673459 0.000673459 2459.73) (0.000673459 0.000673459 2459.73) (0.000673459 0.000673459 2459.73) (9.52096e-05 9.52096e-05 2552.2) (9.52096e-05 9.52096e-05 2552.2) (9.52096e-05 9.52096e-05 2552.2) (9.52096e-05 9.52096e-05 2552.2) (9.52096e-05 9.52096e-05 2552.2)
3650          (0.000673459 0.000673459 2459.73) (0.000673459 0.000673459 2459.73) (0.000673459 0.000673459 2459.73) (0.000673459 0.000673459 2459.73) (0.000673459 0.000673459 2459.73) (0.000673459 0.000673459 2459.73) (9.52096e-05 9.52096e-05 2552.2) (9.52096e-05 9.52096e-05 2552.2) (9.52096e-05 9.52096e-05 2552.2) (9.52096e-05 9.52096e-05 2552.2) (9.52096e-05 9.52096e-05 2552.2)
3700          (0.000673459 0.000673459 2459.73) (0.000673459 0.000673459 2459.73) (0.000673459 0.000673459 2459.73) (0.000673459 0.000673459 2459.73) (0.000673459 0.000673459 2459.73) (0.000673459 0.000673459 2459.73) (9.52096e-05 9.52096e-05 2552.2) (9.52096e-05 9.52096e-05 2552.2) (9.52096e-05 9.52096e-05 2552.2) (9.52096e-05 9.52096e-05 2552.2) (9.52096e-05 9.52096e-05 2552.2)
3750          (0.000673459 0.000673459 2459.73) (0.000673459 0.000673459 2459.73) (0.000673459 0.000673459 2459.73) (0.000673459 0.000673459 2459.73) (0.000673459 0.000673459 2459.73) (0.000673459 0.000673459 2459.73) (9.52096e-05 9.52096e-05 2552.2) (9.52096e-05 9.52096e-05 2552.2) (9.52096e-05 9.52096e-05 2552.2) (9.52096e-05 9.52096e-05 2552.2) (9.52096e-05 9.52096e-05 2552.2)
3800          (0.000673459 0.000673459 2459.73) (0.000673459 0.000673459 2459.73) (0.000673459 0.000673459 2459.73) (0.000673459 0.000673459 2459.73) (0.000673459 0.000673459 2459.73) (0.000673459 0.000673459 2459.73) (9.52096e-05 9.52096e-05 2552.2) (9.52096e-05 9.52096e-05 2552.2) (9.52096e-05 9.52096e-05 2552.2) (9.52096e-05 9.52096e-05 2552.2) (9.52096e-05 9.52096e-05 2552.2)
3850          (0.000673459 0.000673459 2459.73) (0.000673459 0.000673459 2459.73) (0.000673459 0.000673459 2459.73) (0.000673459 0.000673459 2459.73) (0.000673459 0.000673459 2459.73) (0.000673459 0.000673459 2459.73) (9.52096e-05 9.52096e-05 2552.2) (9.52096e-05 9.52096e-05 2552.2) (9.52096e-05 9.52096e-05 2552.2) (9.52096e-05 9.52096e-05 2552.2) (9.52096e-05 9.52096e-05 2552.2)