# Probe 0 (0.0015 0.0015 0)
# Probe 1 (0.0015 0.0015 0.01)
# Probe 2 (0.0015 0.0015 0.02)
# Probe 3 (0.0015 0.0015 0.03)
# Probe 4 (0.0015 0.0015 0.04)
# Probe 5 (0.0015 0.0015 0.05)
# Probe 6 (0.0015 0.0015 0.06)
# Probe 7 (0.0015 0.0015 0.07)
# Probe 8 (0.0015 0.0015 0.08)
# Probe 9 (0.0015 0.0015 0.09)
# Probe 10 (0.0015 0.0015 0.1)
# Time        0             1             2             3             4             5             6             7             8             9             10           
50            (5.70771e-11 2.56967e-12 -3.4635e-10) (5.70771e-11 2.56967e-12 -3.4635e-10) (5.70771e-11 2.56967e-12 -3.4635e-10) (5.70771e-11 2.56967e-12 -3.4635e-10) (5.70771e-11 2.56967e-12 -3.4635e-10) (5.70771e-11 2.56967e-12 -3.4635e-10) (5.1237e-15 8.38503e-13 -7.49739e-11) (5.1237e-15 8.38503e-13 -7.49739e-11) (5.1237e-15 8.38503e-13 -7.49739e-11) (5.1237e-15 8.38503e-13 -7.49739e-11) (5.1237e-15 8.38503e-13 -7.49739e-11)
100           (5.00067e-12 1.84595e-12 1.91383e-10) (5.00067e-12 1.84595e-12 1.91383e-10) (5.00067e-12 1.84595e-12 1.91383e-10) (5.00067e-12 1.84595e-12 1.91383e-10) (5.00067e-12 1.84595e-12 1.91383e-10) (5.00067e-12 1.84595e-12 1.91383e-10) (-3.20191e-15 -9.94106e-12 -1.02156e-10) (-3.20191e-15 -9.94106e-12 -1.02156e-10) (-3.20191e-15 -9.94106e-12 -1.02156e-10) (-3.20191e-15 -9.94106e-12 -1.02156e-10) (-3.20191e-15 -9.94106e-12 -1.02156e-10)
150           (7.08495e-12 1.56433e-12 2.43704e-10) (7.08495e-12 1.56433e-12 2.43704e-10) (7.08495e-12 1.56433e-12 2.43704e-10) (7.08495e-12 1.56433e-12 2.43704e-10) (7.08495e-12 1.56433e-12 2.43704e-10) (7.08495e-12 1.56433e-12 2.43704e-10) (-1.0838e-11 9.00344e-12 3.85803e-10) (-1.0838e-11 9.00344e-12 3.85803e-10) (-1.0838e-11 9.00344e-12 3.85803e-10) (-1.0838e-11 9.00344e-12 3.85803e-10) (-1.0838e-11 9.00344e-12 3.85803e-10)
200           (6.30639e-13 5.80264e-11 -1.36229e-09) (6.30639e-13 5.80264e-11 -1.36229e-09) (6.30639e-13 5.80264e-11 -1.36229e-09) (6.30639e-13 5.80264e-11 -1.36229e-09) (6.30639e-13 5.80264e-11 -1.36229e-09) (6.30639e-13 5.80264e-11 -1.36229e-09) (9.08286e-12 -8.16244e-12 -6.43775e-10) (9.08286e-12 -8.16244e-12 -6.43775e-10) (9.08286e-12 -8.16244e-12 -6.43775e-10) (9.08286e-12 -8.16244e-12 -6.43775e-10) (9.08286e-12 -8.16244e-12 -6.43775e-10)
250           (4.73613e-12 -5.85791e-11 -2.81337e-09) (4.73613e-12 -5.85791e-11 -2.81337e-09) (4.73613e-12 -5.85791e-11 -2.81337e-09) (4.73613e-12 -5.85791e-11 -2.81337e-09) (4.73613e-12 -5.85791e-11 -2.81337e-09) (4.73613e-12 -5.85791e-11 -2.81337e-09) (-9.09619e-13 -4.35743e-14 -2.16842e-09) (-9.09619e-13 -4.35743e-14 -2.16842e-09) (-9.09619e-13 -4.35743e-14 -2.16842e-09) (-9.09619e-13 -4.35743e-14 -2.16842e-09) (-9.09619e-13 -4.35743e-14 -2.16842e-09)
300           (5.6216e-12 -4.93138e-11 -2.43285e-09) (5.6216e-12 -4.93138e-11 -2.43285e-09) (5.6216e-12 -4.93138e-11 -2.43285e-09) (5.6216e-12 -4.93138e-11 -2.43285e-09) (5.6216e-12 -4.93138e-11 -2.43285e-09) (5.6216e-12 -4.93138e-11 -2.43285e-09) (1.33152e-13 -4.14556e-14 -1.9338e-09) (1.33152e-13 -4.14556e-14 -1.9338e-09) (1.33152e-13 -4.14556e-14 -1.9338e-09) (1.33152e-13 -4.14556e-14 -1.9338e-09) (1.33152e-13 -4.14556e-14 -1.9338e-09)
350           (5.64429e-11 -5.44359e-11 -2.43391e-09) (5.64429e-11 -5.44359e-11 -2.43391e-09) (5.64429e-11 -5.44359e-11 -2.43391e-09) (5.64429e-11 -5.44359e-11 -2.43391e-09) (5.64429e-11 -5.44359e-11 -2.43391e-09) (5.64429e-11 -5.44359e-11 -2.43391e-09) (-8.80545e-13 1.82352e-11 -1.91985e-09) (-8.80545e-13 1.82352e-11 -1.91985e-09) (-8.80545e-13 1.82352e-11 -1.91985e-09) (-8.80545e-13 1.82352e-11 -1.91985e-09) (-8.80545e-13 1.82352e-11 -1.91985e-09)
400           (-1.62516e-12 -1.66113e-12 -2.63942e-09) (-1.62516e-12 -1.66113e-12 -2.63942e-09) (-1.62516e-12 -1.66113e-12 -2.63942e-09) (-1.62516e-12 -1.66113e-12 -2.63942e-09) (-1.62516e-12 -1.66113e-12 -2.63942e-09) (-1.62516e-12 -1.66113e-12 -2.63942e-09) (8.1232e-12 1.00862e-11 -2.24779e-09) (8.1232e-12 1.00862e-11 -2.24779e-09) (8.1232e-12 1.00862e-11 -2.24779e-09) (8.1232e-12 1.00862e-11 -2.24779e-09) (8.1232e-12 1.00862e-11 -2.24779e-09)
450           (6.24449e-12 1.40796e-12 -1.21936e-09) (6.24449e-12 1.40796e-12 -1.21936e-09) (6.24449e-12 1.40796e-12 -1.21936e-09) (6.24449e-12 1.40796e-12 -1.21936e-09) (6.24449e-12 1.40796e-12 -1.21936e-09) (6.24449e-12 1.40796e-12 -1.21936e-09) (-9.24742e-12 1.92534e-14 -9.64723e-10) (-9.24742e-12 1.92534e-14 -9.64723e-10) (-9.24742e-12 1.92534e-14 -9.64723e-10) (-9.24742e-12 1.92534e-14 -9.64723e-10) (-9.24742e-12 1.92534e-14 -9.64723e-10)
500           (-1.89321e-13 -5.42983e-11 -1.87584e-09) (-1.89321e-13 -5.42983e-11 -1.87584e-09) (-1.89321e-13 -5.42983e-11 -1.87584e-09) (-1.89321e-13 -5.42983e-11 -1.87584e-09) (-1.89321e-13 -5.42983e-11 -1.87584e-09) (-1.89321e-13 -5.42983e-11 -1.87584e-09) (5.3555e-14 7.93436e-13 -1.41448e-09) (5.3555e-14 7.93436e-13 -1.41448e-09) (5.3555e-14 7.93436e-13 -1.41448e-09) (5.3555e-14 7.93436e-13 -1.41448e-09) (5.3555e-14 7.93436e-13 -1.41448e-09)
550           (4.33886e-12 -1.51446e-12 -1.05193e-10) (4.33886e-12 -1.51446e-12 -1.05193e-10) (4.33886e-12 -1.51446e-12 -1.05193e-10) (4.33886e-12 -1.51446e-12 -1.05193e-10) (4.33886e-12 -1.51446e-12 -1.05193e-10) (4.33886e-12 -1.51446e-12 -1.05193e-10) (1.74019e-15 8.95743e-12 3.78203e-10) (1.74019e-15 8.95743e-12 3.78203e-10) (1.74019e-15 8.95743e-12 3.78203e-10) (1.74019e-15 8.95743e-12 3.78203e-10) (1.74019e-15 8.95743e-12 3.78203e-10)
600           (-1.75787e-12 -4.5628e-13 -2.48722e-09) (-1.75787e-12 -4.5628e-13 -2.48722e-09) (-1.75787e-12 -4.5628e-13 -2.48722e-09) (-1.75787e-12 -4.5628e-13 -2.48722e-09) (-1.75787e-12 -4.5628e-13 -2.48722e-09) (-1.75787e-12 -4.5628e-13 -2.48722e-09) (-1.11374e-14 -8.94988e-12 -2.1346e-09) (-1.11374e-14 -8.94988e-12 -2.1346e-09) (-1.11374e-14 -8.94988e-12 -2.1346e-09) (-1.11374e-14 -8.94988e-12 -2.1346e-09) (-1.11374e-14 -8.94988e-12 -2.1346e-09)
650           (6.87697e-13 -1.87828e-12 -6.87007e-10) (6.87697e-13 -1.87828e-12 -6.87007e-10) (6.87697e-13 -1.87828e-12 -6.87007e-10) (6.87697e-13 -1.87828e-12 -6.87007e-10) (6.87697e-13 -1.87828e-12 -6.87007e-10) (6.87697e-13 -1.87828e-12 -6.87007e-10) (-9.00335e-12 9.0848e-12 -2.76773e-10) (-9.00335e-12 9.0848e-12 -2.76773e-10) (-9.00335e-12 9.0848e-12 -2.76773e-10) (-9.00335e-12 9.0848e-12 -2.76773e-10) (-9.00335e-12 9.0848e-12 -2.76773e-10)
700           (2.37785e-12 -1.33499e-12 -4.75653e-09) (2.37785e-12 -1.33499e-12 -4.75653e-09) (2.37785e-12 -1.33499e-12 -4.75653e-09) (2.37785e-12 -1.33499e-12 -4.75653e-09) (2.37785e-12 -1.33499e-12 -4.75653e-09) (2.37785e-12 -1.33499e-12 -4.75653e-09) (-9.06941e-12 1.98842e-11 -3.71182e-09) (-9.06941e-12 1.98842e-11 -3.71182e-09) (-9.06941e-12 1.98842e-11 -3.71182e-09) (-9.06941e-12 1.98842e-11 -3.71182e-09) (-9.06941e-12 1.98842e-11 -3.71182e-09)
750           (1.36468e-12 3.35312e-12 -2.87579e-09) (1.36468e-12 3.35312e-12 -2.87579e-09) (1.36468e-12 3.35312e-12 -2.87579e-09) (1.36468e-12 3.35312e-12 -2.87579e-09) (1.36468e-12 3.35312e-12 -2.87579e-09) (1.36468e-12 3.35312e-12 -2.87579e-09) (9.09248e-12 9.18143e-13 -2.67246e-09) (9.09248e-12 9.18143e-13 -2.67246e-09) (9.09248e-12 9.18143e-13 -2.67246e-09) (9.09248e-12 9.18143e-13 -2.67246e-09) (9.09248e-12 9.18143e-13 -2.67246e-09)
800           (1.96463e-12 -5.21129e-11 -1.14398e-09) (1.96463e-12 -5.21129e-11 -1.14398e-09) (1.96463e-12 -5.21129e-11 -1.14398e-09) (1.96463e-12 -5.21129e-11 -1.14398e-09) (1.96463e-12 -5.21129e-11 -1.14398e-09) (1.96463e-12 -5.21129e-11 -1.14398e-09) (-9.00076e-12 7.25518e-12 -8.27696e-10) (-9.00076e-12 7.25518e-12 -8.27696e-10) (-9.00076e-12 7.25518e-12 -8.27696e-10) (-9.00076e-12 7.25518e-12 -8.27696e-10) (-9.00076e-12 7.25518e-12 -8.27696e-10)
850           (5.12515e-11 -1.70528e-12 -2.89187e-09) (5.12515e-11 -1.70528e-12 -2.89187e-09) (5.12515e-11 -1.70528e-12 -2.89187e-09) (5.12515e-11 -1.70528e-12 -2.89187e-09) (5.12515e-11 -1.70528e-12 -2.89187e-09) (5.12515e-11 -1.70528e-12 -2.89187e-09) (1.37156e-13 8.42107e-13 -3.14462e-09) (1.37156e-13 8.42107e-13 -3.14462e-09) (1.37156e-13 8.42107e-13 -3.14462e-09) (1.37156e-13 8.42107e-13 -3.14462e-09) (1.37156e-13 8.42107e-13 -3.14462e-09)
900           (-6.00983e-11 -9.2279e-12 3.34441e-09) (-6.00983e-11 -9.2279e-12 3.34441e-09) (-6.00983e-11 -9.2279e-12 3.34441e-09) (-6.00983e-11 -9.2279e-12 3.34441e-09) (-6.00983e-11 -9.2279e-12 3.34441e-09) (-6.00983e-11 -9.2279e-12 3.34441e-09) (-9.23946e-12 -9.0559e-12 2.70202e-09) (-9.23946e-12 -9.0559e-12 2.70202e-09) (-9.23946e-12 -9.0559e-12 2.70202e-09) (-9.23946e-12 -9.0559e-12 2.70202e-09) (-9.23946e-12 -9.0559e-12 2.70202e-09)
950           (-7.70745e-12 3.18811e-13 -5.56318e-10) (-7.70745e-12 3.18811e-13 -5.56318e-10) (-7.70745e-12 3.18811e-13 -5.56318e-10) (-7.70745e-12 3.18811e-13 -5.56318e-10) (-7.70745e-12 3.18811e-13 -5.56318e-10) (-7.70745e-12 3.18811e-13 -5.56318e-10) (6.12018e-14 -1.81842e-11 -4.79431e-10) (6.12018e-14 -1.81842e-11 -4.79431e-10) (6.12018e-14 -1.81842e-11 -4.79431e-10) (6.12018e-14 -1.81842e-11 -4.79431e-10) (6.12018e-14 -1.81842e-11 -4.79431e-10)
1000          (-5.35164e-11 6.22807e-12 -2.45282e-09) (-5.35164e-11 6.22807e-12 -2.45282e-09) (-5.35164e-11 6.22807e-12 -2.45282e-09) (-5.35164e-11 6.22807e-12 -2.45282e-09) (-5.35164e-11 6.22807e-12 -2.45282e-09) (-5.35164e-11 6.22807e-12 -2.45282e-09) (-9.03719e-12 -2.35091e-14 -1.55574e-09) (-9.03719e-12 -2.35091e-14 -1.55574e-09) (-9.03719e-12 -2.35091e-14 -1.55574e-09) (-9.03719e-12 -2.35091e-14 -1.55574e-09) (-9.03719e-12 -2.35091e-14 -1.55574e-09)
1050          (-2.32687e-13 -1.10626e-10 -2.1035e-09) (-2.32687e-13 -1.10626e-10 -2.1035e-09) (-2.32687e-13 -1.10626e-10 -2.1035e-09) (-2.32687e-13 -1.10626e-10 -2.1035e-09) (-2.32687e-13 -1.10626e-10 -2.1035e-09) (-2.32687e-13 -1.10626e-10 -2.1035e-09) (-2.71708e-14 8.87654e-12 -1.53719e-09) (-2.71708e-14 8.87654e-12 -1.53719e-09) (-2.71708e-14 8.87654e-12 -1.53719e-09) (-2.71708e-14 8.87654e-12 -1.53719e-09) (-2.71708e-14 8.87654e-12 -1.53719e-09)
1100          (6.02426e-11 1.91734e-13 -2.43374e-09) (6.02426e-11 1.91734e-13 -2.43374e-09) (6.02426e-11 1.91734e-13 -2.43374e-09) (6.02426e-11 1.91734e-13 -2.43374e-09) (6.02426e-11 1.91734e-13 -2.43374e-09) (6.02426e-11 1.91734e-13 -2.43374e-09) (9.13666e-12 -9.06532e-13 -1.86693e-09) (9.13666e-12 -9.06532e-13 -1.86693e-09) (9.13666e-12 -9.06532e-13 -1.86693e-09) (9.13666e-12 -9.06532e-13 -1.86693e-09) (9.13666e-12 -9.06532e-13 -1.86693e-09)
1150          (-1.69632e-13 -8.49111e-14 -1.42223e-09) (-1.69632e-13 -8.49111e-14 -1.42223e-09) (-1.69632e-13 -8.49111e-14 -1.42223e-09) (-1.69632e-13 -8.49111e-14 -1.42223e-09) (-1.69632e-13 -8.49111e-14 -1.42223e-09) (-1.69632e-13 -8.49111e-14 -1.42223e-09) (9.16649e-12 9.10004e-12 -1.70993e-09) (9.16649e-12 9.10004e-12 -1.70993e-09) (9.16649e-12 9.10004e-12 -1.70993e-09) (9.16649e-12 9.10004e-12 -1.70993e-09) (9.16649e-12 9.10004e-12 -1.70993e-09)
1200          (3.13265e-12 1.93117e-12 -2.91373e-09) (3.13265e-12 1.93117e-12 -2.91373e-09) (3.13265e-12 1.93117e-12 -2.91373e-09) (3.13265e-12 1.93117e-12 -2.91373e-09) (3.13265e-12 1.93117e-12 -2.91373e-09) (3.13265e-12 1.93117e-12 -2.91373e-09) (-9.08747e-12 -8.41125e-13 -2.27375e-09) (-9.08747e-12 -8.41125e-13 -2.27375e-09) (-9.08747e-12 -8.41125e-13 -2.27375e-09) (-9.08747e-12 -8.41125e-13 -2.27375e-09) (-9.08747e-12 -8.41125e-13 -2.27375e-09)
1250          (6.70375e-11 2.62593e-13 -6.55609e-09) (6.70375e-11 2.62593e-13 -6.55609e-09) (6.70375e-11 2.62593e-13 -6.55609e-09) (6.70375e-11 2.62593e-13 -6.55609e-09) (6.70375e-11 2.62593e-13 -6.55609e-09) (6.70375e-11 2.62593e-13 -6.55609e-09) (-9.03695e-12 1.86151e-12 -5.86373e-09) (-9.03695e-12 1.86151e-12 -5.86373e-09) (-9.03695e-12 1.86151e-12 -5.86373e-09) (-9.03695e-12 1.86151e-12 -5.86373e-09) (-9.03695e-12 1.86151e-12 -5.86373e-09)
1300          (-5.79806e-13 1.59857e-12 -2.66559e-09) (-5.79806e-13 1.59857e-12 -2.66559e-09) (-5.79806e-13 1.59857e-12 -2.66559e-09) (-5.79806e-13 1.59857e-12 -2.66559e-09) (-5.79806e-13 1.59857e-12 -2.66559e-09) (-5.79806e-13 1.59857e-12 -2.66559e-09) (9.11195e-12 9.95141e-12 -2.14458e-09) (9.11195e-12 9.95141e-12 -2.14458e-09) (9.11195e-12 9.95141e-12 -2.14458e-09) (9.11195e-12 9.95141e-12 -2.14458e-09) (9.11195e-12 9.95141e-12 -2.14458e-09)
1350          (-4.85587e-13 -4.47757e-14 -5.42343e-09) (-4.85587e-13 -4.47757e-14 -5.42343e-09) (-4.85587e-13 -4.47757e-14 -5.42343e-09) (-4.85587e-13 -4.47757e-14 -5.42343e-09) (-4.85587e-13 -4.47757e-14 -5.42343e-09) (-4.85587e-13 -4.47757e-14 -5.42343e-09) (-7.95577e-13 8.61052e-14 -4.49792e-09) (-7.95577e-13 8.61052e-14 -4.49792e-09) (-7.95577e-13 8.61052e-14 -4.49792e-09) (-7.95577e-13 8.61052e-14 -4.49792e-09) (-7.95577e-13 8.61052e-14 -4.49792e-09)
1400          (1.15053e-10 5.49077e-11 -5.30538e-09) (1.15053e-10 5.49077e-11 -5.30538e-09) (1.15053e-10 5.49077e-11 -5.30538e-09) (1.15053e-10 5.49077e-11 -5.30538e-09) (1.15053e-10 5.49077e-11 -5.30538e-09) (1.15053e-10 5.49077e-11 -5.30538e-09) (-3.03311e-14 8.96359e-12 -4.6823e-09) (-3.03311e-14 8.96359e-12 -4.6823e-09) (-3.03311e-14 8.96359e-12 -4.6823e-09) (-3.03311e-14 8.96359e-12 -4.6823e-09) (-3.03311e-14 8.96359e-12 -4.6823e-09)
1450          (5.84251e-11 3.41732e-13 -3.3215e-09) (5.84251e-11 3.41732e-13 -3.3215e-09) (5.84251e-11 3.41732e-13 -3.3215e-09) (5.84251e-11 3.41732e-13 -3.3215e-09) (5.84251e-11 3.41732e-13 -3.3215e-09) (5.84251e-11 3.41732e-13 -3.3215e-09) (8.25832e-12 7.29868e-12 -3.17774e-09) (8.25832e-12 7.29868e-12 -3.17774e-09) (8.25832e-12 7.29868e-12 -3.17774e-09) (8.25832e-12 7.29868e-12 -3.17774e-09) (8.25832e-12 7.29868e-12 -3.17774e-09)
1500          (-5.34747e-12 -5.37429e-11 -1.20258e-09) (-5.34747e-12 -5.37429e-11 -1.20258e-09) (-5.34747e-12 -5.37429e-11 -1.20258e-09) (-5.34747e-12 -5.37429e-11 -1.20258e-09) (-5.34747e-12 -5.37429e-11 -1.20258e-09) (-5.34747e-12 -5.37429e-11 -1.20258e-09) (-9.65707e-14 -9.22963e-13 -8.39321e-10) (-9.65707e-14 -9.22963e-13 -8.39321e-10) (-9.65707e-14 -9.22963e-13 -8.39321e-10) (-9.65707e-14 -9.22963e-13 -8.39321e-10) (-9.65707e-14 -9.22963e-13 -8.39321e-10)
1550          (-4.65421e-12 -6.36495e-11 1.61502e-09) (-4.65421e-12 -6.36495e-11 1.61502e-09) (-4.65421e-12 -6.36495e-11 1.61502e-09) (-4.65421e-12 -6.36495e-11 1.61502e-09) (-4.65421e-12 -6.36495e-11 1.61502e-09) (-4.65421e-12 -6.36495e-11 1.61502e-09) (6.88185e-14 9.22776e-12 1.70864e-09) (6.88185e-14 9.22776e-12 1.70864e-09) (6.88185e-14 9.22776e-12 1.70864e-09) (6.88185e-14 9.22776e-12 1.70864e-09) (6.88185e-14 9.22776e-12 1.70864e-09)
1600          (6.28437e-11 -2.11792e-12 5.55676e-10) (6.28437e-11 -2.11792e-12 5.55676e-10) (6.28437e-11 -2.11792e-12 5.55676e-10) (6.28437e-11 -2.11792e-12 5.55676e-10) (6.28437e-11 -2.11792e-12 5.55676e-10) (6.28437e-11 -2.11792e-12 5.55676e-10) (9.08727e-12 8.26109e-12 2.16323e-10) (9.08727e-12 8.26109e-12 2.16323e-10) (9.08727e-12 8.26109e-12 2.16323e-10) (9.08727e-12 8.26109e-12 2.16323e-10) (9.08727e-12 8.26109e-12 2.16323e-10)
1650          (4.93671e-11 5.85624e-11 -2.79136e-09) (4.93671e-11 5.85624e-11 -2.79136e-09) (4.93671e-11 5.85624e-11 -2.79136e-09) (4.93671e-11 5.85624e-11 -2.79136e-09) (4.93671e-11 5.85624e-11 -2.79136e-09) (4.93671e-11 5.85624e-11 -2.79136e-09) (1.8639e-13 8.88756e-13 -1.93673e-09) (1.8639e-13 8.88756e-13 -1.93673e-09) (1.8639e-13 8.88756e-13 -1.93673e-09) (1.8639e-13 8.88756e-13 -1.93673e-09) (1.8639e-13 8.88756e-13 -1.93673e-09)
1700          (6.02924e-11 -5.4088e-11 -1.83249e-09) (6.02924e-11 -5.4088e-11 -1.83249e-09) (6.02924e-11 -5.4088e-11 -1.83249e-09) (6.02924e-11 -5.4088e-11 -1.83249e-09) (6.02924e-11 -5.4088e-11 -1.83249e-09) (6.02924e-11 -5.4088e-11 -1.83249e-09) (-1.47743e-14 9.05558e-12 -1.32454e-09) (-1.47743e-14 9.05558e-12 -1.32454e-09) (-1.47743e-14 9.05558e-12 -1.32454e-09) (-1.47743e-14 9.05558e-12 -1.32454e-09) (-1.47743e-14 9.05558e-12 -1.32454e-09)
1750          (-7.31167e-12 -7.11872e-15 -1.42003e-09) (-7.31167e-12 -7.11872e-15 -1.42003e-09) (-7.31167e-12 -7.11872e-15 -1.42003e-09) (-7.31167e-12 -7.11872e-15 -1.42003e-09) (-7.31167e-12 -7.11872e-15 -1.42003e-09) (-7.31167e-12 -7.11872e-15 -1.42003e-09) (5.655e-14 -9.39706e-14 -1.43885e-09) (5.655e-14 -9.39706e-14 -1.43885e-09) (5.655e-14 -9.39706e-14 -1.43885e-09) (5.655e-14 -9.39706e-14 -1.43885e-09) (5.655e-14 -9.39706e-14 -1.43885e-09)
1800          (-5.5526e-11 -2.13515e-12 -2.1398e-09) (-5.5526e-11 -2.13515e-12 -2.1398e-09) (-5.5526e-11 -2.13515e-12 -2.1398e-09) (-5.5526e-11 -2.13515e-12 -2.1398e-09) (-5.5526e-11 -2.13515e-12 -2.1398e-09) (-5.5526e-11 -2.13515e-12 -2.1398e-09) (9.05344e-12 -9.41242e-13 -1.3497e-09) (9.05344e-12 -9.41242e-13 -1.3497e-09) (9.05344e-12 -9.41242e-13 -1.3497e-09) (9.05344e-12 -9.41242e-13 -1.3497e-09) (9.05344e-12 -9.41242e-13 -1.3497e-09)
1850          (5.87406e-11 -2.36777e-12 -1.31802e-09) (5.87406e-11 -2.36777e-12 -1.31802e-09) (5.87406e-11 -2.36777e-12 -1.31802e-09) (5.87406e-11 -2.36777e-12 -1.31802e-09) (5.87406e-11 -2.36777e-12 -1.31802e-09) (5.87406e-11 -2.36777e-12 -1.31802e-09) (8.92802e-14 -3.66297e-15 -1.15422e-09) (8.92802e-14 -3.66297e-15 -1.15422e-09) (8.92802e-14 -3.66297e-15 -1.15422e-09) (8.92802e-14 -3.66297e-15 -1.15422e-09) (8.92802e-14 -3.66297e-15 -1.15422e-09)
1900          (6.38468e-11 -3.90389e-12 -7.54692e-10) (6.38468e-11 -3.90389e-12 -7.54692e-10) (6.38468e-11 -3.90389e-12 -7.54692e-10) (6.38468e-11 -3.90389e-12 -7.54692e-10) (6.38468e-11 -3.90389e-12 -7.54692e-10) (6.38468e-11 -3.90389e-12 -7.54692e-10) (-4.99388e-14 2.1954e-15 -4.30127e-10) (-4.99388e-14 2.1954e-15 -4.30127e-10) (-4.99388e-14 2.1954e-15 -4.30127e-10) (-4.99388e-14 2.1954e-15 -4.30127e-10) (-4.99388e-14 2.1954e-15 -4.30127e-10)
1950          (-5.65692e-12 -6.29595e-11 -2.78898e-09) (-5.65692e-12 -6.29595e-11 -2.78898e-09) (-5.65692e-12 -6.29595e-11 -2.78898e-09) (-5.65692e-12 -6.29595e-11 -2.78898e-09) (-5.65692e-12 -6.29595e-11 -2.78898e-09) (-5.65692e-12 -6.29595e-11 -2.78898e-09) (-2.98898e-14 -9.24363e-12 -2.50051e-09) (-2.98898e-14 -9.24363e-12 -2.50051e-09) (-2.98898e-14 -9.24363e-12 -2.50051e-09) (-2.98898e-14 -9.24363e-12 -2.50051e-09) (-2.98898e-14 -9.24363e-12 -2.50051e-09)
2000          (4.42458e-12 -1.09191e-13 1.74731e-09) (4.42458e-12 -1.09191e-13 1.74731e-09) (4.42458e-12 -1.09191e-13 1.74731e-09) (4.42458e-12 -1.09191e-13 1.74731e-09) (4.42458e-12 -1.09191e-13 1.74731e-09) (4.42458e-12 -1.09191e-13 1.74731e-09) (9.9338e-12 -9.44354e-14 1.61997e-09) (9.9338e-12 -9.44354e-14 1.61997e-09) (9.9338e-12 -9.44354e-14 1.61997e-09) (9.9338e-12 -9.44354e-14 1.61997e-09) (9.9338e-12 -9.44354e-14 1.61997e-09)
2050          (6.32095e-11 6.14993e-11 -4.29574e-09) (6.32095e-11 6.14993e-11 -4.29574e-09) (6.32095e-11 6.14993e-11 -4.29574e-09) (6.32095e-11 6.14993e-11 -4.29574e-09) (6.32095e-11 6.14993e-11 -4.29574e-09) (6.32095e-11 6.14993e-11 -4.29574e-09) (-8.78473e-14 1.00857e-11 -3.77614e-09) (-8.78473e-14 1.00857e-11 -3.77614e-09) (-8.78473e-14 1.00857e-11 -3.77614e-09) (-8.78473e-14 1.00857e-11 -3.77614e-09) (-8.78473e-14 1.00857e-11 -3.77614e-09)
2100          (5.81489e-11 8.54652e-14 -3.3162e-09) (5.81489e-11 8.54652e-14 -3.3162e-09) (5.81489e-11 8.54652e-14 -3.3162e-09) (5.81489e-11 8.54652e-14 -3.3162e-09) (5.81489e-11 8.54652e-14 -3.3162e-09) (5.81489e-11 8.54652e-14 -3.3162e-09) (9.23806e-12 9.47858e-14 -2.76998e-09) (9.23806e-12 9.47858e-14 -2.76998e-09) (9.23806e-12 9.47858e-14 -2.76998e-09) (9.23806e-12 9.47858e-14 -2.76998e-09) (9.23806e-12 9.47858e-14 -2.76998e-09)
2150          (-5.23364e-11 -1.49674e-12 -1.32964e-09) (-5.23364e-11 -1.49674e-12 -1.32964e-09) (-5.23364e-11 -1.49674e-12 -1.32964e-09) (-5.23364e-11 -1.49674e-12 -1.32964e-09) (-5.23364e-11 -1.49674e-12 -1.32964e-09) (-5.23364e-11 -1.49674e-12 -1.32964e-09) (1.06075e-14 -3.34111e-15 -1.16704e-09) (1.06075e-14 -3.34111e-15 -1.16704e-09) (1.06075e-14 -3.34111e-15 -1.16704e-09) (1.06075e-14 -3.34111e-15 -1.16704e-09) (1.06075e-14 -3.34111e-15 -1.16704e-09)
2200          (-5.70308e-11 -3.04012e-12 -2.24071e-09) (-5.70308e-11 -3.04012e-12 -2.24071e-09) (-5.70308e-11 -3.04012e-12 -2.24071e-09) (-5.70308e-11 -3.04012e-12 -2.24071e-09) (-5.70308e-11 -3.04012e-12 -2.24071e-09) (-5.70308e-11 -3.04012e-12 -2.24071e-09) (1.37093e-14 6.6844e-14 -1.65536e-09) (1.37093e-14 6.6844e-14 -1.65536e-09) (1.37093e-14 6.6844e-14 -1.65536e-09) (1.37093e-14 6.6844e-14 -1.65536e-09) (1.37093e-14 6.6844e-14 -1.65536e-09)
2250          (1.18053e-10 3.0429e-12 -1.97213e-09) (1.18053e-10 3.0429e-12 -1.97213e-09) (1.18053e-10 3.0429e-12 -1.97213e-09) (1.18053e-10 3.0429e-12 -1.97213e-09) (1.18053e-10 3.0429e-12 -1.97213e-09) (1.18053e-10 3.0429e-12 -1.97213e-09) (5.40821e-14 -8.97802e-12 -1.44377e-09) (5.40821e-14 -8.97802e-12 -1.44377e-09) (5.40821e-14 -8.97802e-12 -1.44377e-09) (5.40821e-14 -8.97802e-12 -1.44377e-09) (5.40821e-14 -8.97802e-12 -1.44377e-09)
2300          (-3.81781e-12 5.85074e-11 -2.09218e-09) (-3.81781e-12 5.85074e-11 -2.09218e-09) (-3.81781e-12 5.85074e-11 -2.09218e-09) (-3.81781e-12 5.85074e-11 -2.09218e-09) (-3.81781e-12 5.85074e-11 -2.09218e-09) (-3.81781e-12 5.85074e-11 -2.09218e-09) (-1.83221e-15 -9.18431e-13 -1.63571e-09) (-1.83221e-15 -9.18431e-13 -1.63571e-09) (-1.83221e-15 -9.18431e-13 -1.63571e-09) (-1.83221e-15 -9.18431e-13 -1.63571e-09) (-1.83221e-15 -9.18431e-13 -1.63571e-09)
2350          (-4.89249e-11 5.36972e-12 -4.47338e-09) (-4.89249e-11 5.36972e-12 -4.47338e-09) (-4.89249e-11 5.36972e-12 -4.47338e-09) (-4.89249e-11 5.36972e-12 -4.47338e-09) (-4.89249e-11 5.36972e-12 -4.47338e-09) (-4.89249e-11 5.36972e-12 -4.47338e-09) (3.29823e-14 -9.13361e-12 -3.86323e-09) (3.29823e-14 -9.13361e-12 -3.86323e-09) (3.29823e-14 -9.13361e-12 -3.86323e-09) (3.29823e-14 -9.13361e-12 -3.86323e-09) (3.29823e-14 -9.13361e-12 -3.86323e-09)
2400          (-4.57425e-11 5.3188e-11 -4.59951e-09) (-4.57425e-11 5.3188e-11 -4.59951e-09) (-4.57425e-11 5.3188e-11 -4.59951e-09) (-4.57425e-11 5.3188e-11 -4.59951e-09) (-4.57425e-11 5.3188e-11 -4.59951e-09) (-4.57425e-11 5.3188e-11 -4.59951e-09) (-1.15675e-13 -1.24903e-13 -4.66433e-09) (-1.15675e-13 -1.24903e-13 -4.66433e-09) (-1.15675e-13 -1.24903e-13 -4.66433e-09) (-1.15675e-13 -1.24903e-13 -4.66433e-09) (-1.15675e-13 -1.24903e-13 -4.66433e-09)
2450          (-8.08489e-13 2.48185e-12 -1.22027e-09) (-8.08489e-13 2.48185e-12 -1.22027e-09) (-8.08489e-13 2.48185e-12 -1.22027e-09) (-8.08489e-13 2.48185e-12 -1.22027e-09) (-8.08489e-13 2.48185e-12 -1.22027e-09) (-8.08489e-13 2.48185e-12 -1.22027e-09) (-1.01503e-14 -1.1162e-13 -1.12626e-09) (-1.01503e-14 -1.1162e-13 -1.12626e-09) (-1.01503e-14 -1.1162e-13 -1.12626e-09) (-1.01503e-14 -1.1162e-13 -1.12626e-09) (-1.01503e-14 -1.1162e-13 -1.12626e-09)
2500          (-5.66227e-11 9.27261e-15 -1.07431e-09) (-5.66227e-11 9.27261e-15 -1.07431e-09) (-5.66227e-11 9.27261e-15 -1.07431e-09) (-5.66227e-11 9.27261e-15 -1.07431e-09) (-5.66227e-11 9.27261e-15 -1.07431e-09) (-5.66227e-11 9.27261e-15 -1.07431e-09) (-9.06795e-12 8.92737e-15 -7.87124e-10) (-9.06795e-12 8.92737e-15 -7.87124e-10) (-9.06795e-12 8.92737e-15 -7.87124e-10) (-9.06795e-12 8.92737e-15 -7.87124e-10) (-9.06795e-12 8.92737e-15 -7.87124e-10)
2550          (6.25587e-11 1.98088e-12 1.06813e-09) (6.25587e-11 1.98088e-12 1.06813e-09) (6.25587e-11 1.98088e-12 1.06813e-09) (6.25587e-11 1.98088e-12 1.06813e-09) (6.25587e-11 1.98088e-12 1.06813e-09) (6.25587e-11 1.98088e-12 1.06813e-09) (1.81675e-11 -8.26556e-12 1.42742e-09) (1.81675e-11 -8.26556e-12 1.42742e-09) (1.81675e-11 -8.26556e-12 1.42742e-09) (1.81675e-11 -8.26556e-12 1.42742e-09) (1.81675e-11 -8.26556e-12 1.42742e-09)
2600          (-1.44862e-12 -5.26632e-11 -6.82878e-10) (-1.44862e-12 -5.26632e-11 -6.82878e-10) (-1.44862e-12 -5.26632e-11 -6.82878e-10) (-1.44862e-12 -5.26632e-11 -6.82878e-10) (-1.44862e-12 -5.26632e-11 -6.82878e-10) (-1.44862e-12 -5.26632e-11 -6.82878e-10) (-9.22844e-12 -9.07587e-14 -5.23305e-10) (-9.22844e-12 -9.07587e-14 -5.23305e-10) (-9.22844e-12 -9.07587e-14 -5.23305e-10) (-9.22844e-12 -9.07587e-14 -5.23305e-10) (-9.22844e-12 -9.07587e-14 -5.23305e-10)
2650          (4.97469e-12 -5.43774e-11 -1.67301e-09) (4.97469e-12 -5.43774e-11 -1.67301e-09) (4.97469e-12 -5.43774e-11 -1.67301e-09) (4.97469e-12 -5.43774e-11 -1.67301e-09) (4.97469e-12 -5.43774e-11 -1.67301e-09) (4.97469e-12 -5.43774e-11 -1.67301e-09) (8.67134e-13 8.18638e-14 -1.26251e-09) (8.67134e-13 8.18638e-14 -1.26251e-09) (8.67134e-13 8.18638e-14 -1.26251e-09) (8.67134e-13 8.18638e-14 -1.26251e-09) (8.67134e-13 8.18638e-14 -1.26251e-09)
2700          (5.25962e-11 -5.45968e-11 -3.83471e-09) (5.25962e-11 -5.45968e-11 -3.83471e-09) (5.25962e-11 -5.45968e-11 -3.83471e-09) (5.25962e-11 -5.45968e-11 -3.83471e-09) (5.25962e-11 -5.45968e-11 -3.83471e-09) (5.25962e-11 -5.45968e-11 -3.83471e-09) (4.87424e-14 1.77818e-13 -3.26598e-09) (4.87424e-14 1.77818e-13 -3.26598e-09) (4.87424e-14 1.77818e-13 -3.26598e-09) (4.87424e-14 1.77818e-13 -3.26598e-09) (4.87424e-14 1.77818e-13 -3.26598e-09)
2750          (1.7992e-12 1.48731e-12 -1.07479e-09) (1.7992e-12 1.48731e-12 -1.07479e-09) (1.7992e-12 1.48731e-12 -1.07479e-09) (1.7992e-12 1.48731e-12 -1.07479e-09) (1.7992e-12 1.48731e-12 -1.07479e-09) (1.7992e-12 1.48731e-12 -1.07479e-09) (5.3601e-14 7.87526e-14 -9.36149e-10) (5.3601e-14 7.87526e-14 -9.36149e-10) (5.3601e-14 7.87526e-14 -9.36149e-10) (5.3601e-14 7.87526e-14 -9.36149e-10) (5.3601e-14 7.87526e-14 -9.36149e-10)
2800          (6.53586e-11 1.10161e-12 -1.93297e-09) (6.53586e-11 1.10161e-12 -1.93297e-09) (6.53586e-11 1.10161e-12 -1.93297e-09) (6.53586e-11 1.10161e-12 -1.93297e-09) (6.53586e-11 1.10161e-12 -1.93297e-09) (6.53586e-11 1.10161e-12 -1.93297e-09) (-9.1348e-12 -1.05736e-13 -1.07122e-09) (-9.1348e-12 -1.05736e-13 -1.07122e-09) (-9.1348e-12 -1.05736e-13 -1.07122e-09) (-9.1348e-12 -1.05736e-13 -1.07122e-09) (-9.1348e-12 -1.05736e-13 -1.07122e-09)
2850          (-5.93418e-11 5.45059e-12 1.09123e-09) (-5.93418e-11 5.45059e-12 1.09123e-09) (-5.93418e-11 5.45059e-12 1.09123e-09) (-5.93418e-11 5.45059e-12 1.09123e-09) (-5.93418e-11 5.45059e-12 1.09123e-09) (-5.93418e-11 5.45059e-12 1.09123e-09) (9.81883e-16 -7.30583e-14 1.0767e-09) (9.81883e-16 -7.30583e-14 1.0767e-09) (9.81883e-16 -7.30583e-14 1.0767e-09) (9.81883e-16 -7.30583e-14 1.0767e-09) (9.81883e-16 -7.30583e-14 1.0767e-09)
2900          (4.01572e-12 4.17043e-12 -3.48147e-09) (4.01572e-12 4.17043e-12 -3.48147e-09) (4.01572e-12 4.17043e-12 -3.48147e-09) (4.01572e-12 4.17043e-12 -3.48147e-09) (4.01572e-12 4.17043e-12 -3.48147e-09) (4.01572e-12 4.17043e-12 -3.48147e-09) (8.01953e-14 -9.90391e-12 -2.70279e-09) (8.01953e-14 -9.90391e-12 -2.70279e-09) (8.01953e-14 -9.90391e-12 -2.70279e-09) (8.01953e-14 -9.90391e-12 -2.70279e-09) (8.01953e-14 -9.90391e-12 -2.70279e-09)
2950          (6.40947e-11 5.68695e-11 -4.23857e-09) (6.40947e-11 5.68695e-11 -4.23857e-09) (6.40947e-11 5.68695e-11 -4.23857e-09) (6.40947e-11 5.68695e-11 -4.23857e-09) (6.40947e-11 5.68695e-11 -4.23857e-09) (6.40947e-11 5.68695e-11 -4.23857e-09) (8.58474e-13 -1.81977e-11 -4.08002e-09) (8.58474e-13 -1.81977e-11 -4.08002e-09) (8.58474e-13 -1.81977e-11 -4.08002e-09) (8.58474e-13 -1.81977e-11 -4.08002e-09) (8.58474e-13 -1.81977e-11 -4.08002e-09)
3000          (-5.3911e-11 -2.79729e-13 -1.2222e-09) (-5.3911e-11 -2.79729e-13 -1.2222e-09) (-5.3911e-11 -2.79729e-13 -1.2222e-09) (-5.3911e-11 -2.79729e-13 -1.2222e-09) (-5.3911e-11 -2.79729e-13 -1.2222e-09) (-5.3911e-11 -2.79729e-13 -1.2222e-09) (-3.96257e-14 8.10144e-13 -1.10021e-09) (-3.96257e-14 8.10144e-13 -1.10021e-09) (-3.96257e-14 8.10144e-13 -1.10021e-09) (-3.96257e-14 8.10144e-13 -1.10021e-09) (-3.96257e-14 8.10144e-13 -1.10021e-09)
3050          (5.99678e-11 3.4236e-12 1.02123e-09) (5.99678e-11 3.4236e-12 1.02123e-09) (5.99678e-11 3.4236e-12 1.02123e-09) (5.99678e-11 3.4236e-12 1.02123e-09) (5.99678e-11 3.4236e-12 1.02123e-09) (5.99678e-11 3.4236e-12 1.02123e-09) (-8.74466e-13 3.24507e-15 1.18444e-09) (-8.74466e-13 3.24507e-15 1.18444e-09) (-8.74466e-13 3.24507e-15 1.18444e-09) (-8.74466e-13 3.24507e-15 1.18444e-09) (-8.74466e-13 3.24507e-15 1.18444e-09)
3100          (-5.07246e-11 -5.5329e-11 -1.03471e-09) (-5.07246e-11 -5.5329e-11 -1.03471e-09) (-5.07246e-11 -5.5329e-11 -1.03471e-09) (-5.07246e-11 -5.5329e-11 -1.03471e-09) (-5.07246e-11 -5.5329e-11 -1.03471e-09) (-5.07246e-11 -5.5329e-11 -1.03471e-09) (9.41341e-15 4.50004e-14 -6.50535e-10) (9.41341e-15 4.50004e-14 -6.50535e-10) (9.41341e-15 4.50004e-14 -6.50535e-10) (9.41341e-15 4.50004e-14 -6.50535e-10) (9.41341e-15 4.50004e-14 -6.50535e-10)
3150          (-5.52322e-11 2.60982e-13 -1.54422e-09) (-5.52322e-11 2.60982e-13 -1.54422e-09) (-5.52322e-11 2.60982e-13 -1.54422e-09) (-5.52322e-11 2.60982e-13 -1.54422e-09) (-5.52322e-11 2.60982e-13 -1.54422e-09) (-5.52322e-11 2.60982e-13 -1.54422e-09) (-1.03837e-12 -1.82515e-11 -1.02491e-09) (-1.03837e-12 -1.82515e-11 -1.02491e-09) (-1.03837e-12 -1.82515e-11 -1.02491e-09) (-1.03837e-12 -1.82515e-11 -1.02491e-09) (-1.03837e-12 -1.82515e-11 -1.02491e-09)
3200          (4.19347e-12 6.14953e-13 -3.85804e-09) (4.19347e-12 6.14953e-13 -3.85804e-09) (4.19347e-12 6.14953e-13 -3.85804e-09) (4.19347e-12 6.14953e-13 -3.85804e-09) (4.19347e-12 6.14953e-13 -3.85804e-09) (4.19347e-12 6.14953e-13 -3.85804e-09) (-6.2629e-14 3.7032e-14 -3.53208e-09) (-6.2629e-14 3.7032e-14 -3.53208e-09) (-6.2629e-14 3.7032e-14 -3.53208e-09) (-6.2629e-14 3.7032e-14 -3.53208e-09) (-6.2629e-14 3.7032e-14 -3.53208e-09)
3250          (-6.01178e-11 5.41621e-11 -1.0393e-09) (-6.01178e-11 5.41621e-11 -1.0393e-09) (-6.01178e-11 5.41621e-11 -1.0393e-09) (-6.01178e-11 5.41621e-11 -1.0393e-09) (-6.01178e-11 5.41621e-11 -1.0393e-09) (-6.01178e-11 5.41621e-11 -1.0393e-09) (-3.7284e-14 7.4893e-14 -8.12493e-10) (-3.7284e-14 7.4893e-14 -8.12493e-10) (-3.7284e-14 7.4893e-14 -8.12493e-10) (-3.7284e-14 7.4893e-14 -8.12493e-10) (-3.7284e-14 7.4893e-14 -8.12493e-10)