# Wall heat-flux
# Time        	patch         	min           	max           	integral      
1.000000e+02	inlet	0.000000e+00	0.000000e+00	0.000000e+00
1.000000e+02	outlet	0.000000e+00	0.000000e+00	0.000000e+00
1.000000e+02	inWall	5.883090e+03	5.883090e+03	2.601679e+03
1.000000e+02	cool1	4.077229e+01	7.319789e+01	1.555470e+01
1.000000e+02	cool2	5.264842e+01	9.346400e+01	2.017972e+01
1.000000e+02	cool3	1.075463e+02	2.413685e+02	5.437703e+02
1.000000e+02	cool4	1.899566e+02	3.474532e+02	7.169237e+01
1.000000e+02	cool5	1.701824e+02	3.019267e+02	6.205233e+01
2.000000e+02	inlet	0.000000e+00	0.000000e+00	0.000000e+00
2.000000e+02	outlet	0.000000e+00	0.000000e+00	0.000000e+00
2.000000e+02	inWall	5.883090e+03	5.883090e+03	2.601679e+03
2.000000e+02	cool1	1.849258e+01	4.666868e+01	9.137603e+00
2.000000e+02	cool2	3.431688e+01	6.454213e+01	1.433388e+01
2.000000e+02	cool3	8.134677e+01	2.009516e+02	4.300476e+02
2.000000e+02	cool4	1.587686e+02	2.936303e+02	6.002466e+01
2.000000e+02	cool5	1.336940e+02	2.547741e+02	5.026522e+01
3.000000e+02	inlet	0.000000e+00	0.000000e+00	0.000000e+00
3.000000e+02	outlet	0.000000e+00	0.000000e+00	0.000000e+00
3.000000e+02	inWall	5.883090e+03	5.883090e+03	2.601679e+03
3.000000e+02	cool1	3.845423e+00	3.125850e+01	5.147332e+00
3.000000e+02	cool2	2.408128e+01	4.909246e+01	1.084134e+01
3.000000e+02	cool3	6.644542e+01	1.775027e+02	3.656231e+02
3.000000e+02	cool4	1.407831e+02	2.592500e+02	5.306461e+01
3.000000e+02	cool5	1.111781e+02	2.230851e+02	4.283603e+01
4.000000e+02	inlet	0.000000e+00	0.000000e+00	0.000000e+00
4.000000e+02	outlet	0.000000e+00	0.000000e+00	0.000000e+00
4.000000e+02	inWall	5.883090e+03	5.883090e+03	2.601679e+03
4.000000e+02	cool1	-6.824224e+00	1.975136e+01	2.287884e+00
4.000000e+02	cool2	1.716843e+01	3.827613e+01	8.355510e+00
4.000000e+02	cool3	5.679783e+01	1.615998e+02	3.224210e+02
4.000000e+02	cool4	1.285139e+02	2.349318e+02	4.826377e+01
4.000000e+02	cool5	9.629404e+01	1.991547e+02	3.760740e+01
5.000000e+02	inlet	0.000000e+00	0.000000e+00	0.000000e+00
5.000000e+02	outlet	0.000000e+00	0.000000e+00	0.000000e+00
5.000000e+02	inWall	5.883090e+03	5.883090e+03	2.601679e+03
5.000000e+02	cool1	-1.477293e+01	1.213712e+01	5.547595e-02
5.000000e+02	cool2	1.199292e+01	2.980449e+01	6.421603e+00
5.000000e+02	cool3	4.783844e+01	1.503468e+02	2.903122e+02
5.000000e+02	cool4	1.193463e+02	2.166840e+02	4.466547e+01
5.000000e+02	cool5	8.551713e+01	1.801306e+02	3.368227e+01
6.000000e+02	inlet	0.000000e+00	0.000000e+00	0.000000e+00
6.000000e+02	outlet	0.000000e+00	0.000000e+00	0.000000e+00
6.000000e+02	inWall	5.883090e+03	5.883090e+03	2.601679e+03
6.000000e+02	cool1	-2.108649e+01	6.486619e+00	-1.790524e+00
6.000000e+02	cool2	7.865640e+00	2.423852e+01	4.829908e+00
6.000000e+02	cool3	4.076207e+01	1.433217e+02	2.647983e+02
6.000000e+02	cool4	1.121187e+02	2.022555e+02	4.182865e+01
6.000000e+02	cool5	7.731786e+01	1.645556e+02	3.059818e+01
7.000000e+02	inlet	0.000000e+00	0.000000e+00	0.000000e+00
7.000000e+02	outlet	0.000000e+00	0.000000e+00	0.000000e+00
7.000000e+02	inWall	5.883090e+03	5.883090e+03	2.601679e+03
7.000000e+02	cool1	-2.632712e+01	1.471831e+00	-3.363056e+00
7.000000e+02	cool2	4.147087e+00	1.963630e+01	3.474242e+00
7.000000e+02	cool3	3.492391e+01	1.373786e+02	2.435856e+02
7.000000e+02	cool4	1.061845e+02	1.904629e+02	3.950160e+01
7.000000e+02	cool5	7.072057e+01	1.515224e+02	2.808769e+01
8.000000e+02	inlet	0.000000e+00	0.000000e+00	0.000000e+00
8.000000e+02	outlet	0.000000e+00	0.000000e+00	0.000000e+00
8.000000e+02	inWall	5.883090e+03	5.883090e+03	2.601679e+03
8.000000e+02	cool1	-3.152490e+01	-3.036476e+00	-4.720206e+00
8.000000e+02	cool2	6.318504e-01	1.556186e+01	2.234815e+00
8.000000e+02	cool3	2.976529e+01	1.322018e+02	2.254492e+02
8.000000e+02	cool4	1.011030e+02	1.806196e+02	3.753475e+01
8.000000e+02	cool5	6.520811e+01	1.404053e+02	2.598423e+01
9.000000e+02	inlet	0.000000e+00	0.000000e+00	0.000000e+00
9.000000e+02	outlet	0.000000e+00	0.000000e+00	0.000000e+00
9.000000e+02	inWall	5.883090e+03	5.883090e+03	2.601679e+03
9.000000e+02	cool1	-3.610055e+01	-7.127671e+00	-5.939262e+00
9.000000e+02	cool2	-2.690033e+00	1.190314e+01	1.170496e+00
9.000000e+02	cool3	2.530462e+01	1.276350e+02	2.094048e+02
9.000000e+02	cool4	9.649001e+01	1.728581e+02	3.583768e+01
9.000000e+02	cool5	6.040826e+01	1.307680e+02	2.417945e+01
1.000000e+03	inlet	0.000000e+00	0.000000e+00	0.000000e+00
1.000000e+03	outlet	0.000000e+00	0.000000e+00	0.000000e+00
1.000000e+03	inWall	5.883090e+03	5.883090e+03	2.601679e+03
1.000000e+03	cool1	-4.019479e+01	-1.086528e+01	-7.033914e+00
1.000000e+03	cool2	-6.162739e+00	8.591239e+00	2.057028e-01
1.000000e+03	cool3	2.135951e+01	1.235466e+02	1.950627e+02
1.000000e+03	cool4	9.238383e+01	1.651604e+02	3.433714e+01
1.000000e+03	cool5	5.630237e+01	1.222784e+02	2.260403e+01
1.100000e+03	inlet	0.000000e+00	0.000000e+00	0.000000e+00
1.100000e+03	outlet	0.000000e+00	0.000000e+00	0.000000e+00
1.100000e+03	inWall	5.883090e+03	5.883090e+03	2.601679e+03
1.100000e+03	cool1	-4.386792e+01	-1.430472e+01	-8.030648e+00
1.100000e+03	cool2	-9.334619e+00	5.573543e+00	-6.765668e-01
1.100000e+03	cool3	1.782677e+01	1.201753e+02	1.820795e+02
1.100000e+03	cool4	8.877884e+01	1.582147e+02	3.299452e+01
1.100000e+03	cool5	5.265722e+01	1.147019e+02	2.120400e+01
1.200000e+03	inlet	0.000000e+00	0.000000e+00	0.000000e+00
1.200000e+03	outlet	0.000000e+00	0.000000e+00	0.000000e+00
1.200000e+03	inWall	5.883090e+03	5.883090e+03	2.601679e+03
1.200000e+03	cool1	-4.727949e+01	-1.745539e+01	-8.941448e+00
1.200000e+03	cool2	-1.224795e+01	2.940274e+00	-1.477521e+00
1.200000e+03	cool3	1.463536e+01	1.166798e+02	1.701769e+02
1.200000e+03	cool4	8.551929e+01	1.519501e+02	3.177757e+01
1.200000e+03	cool5	4.940306e+01	1.078583e+02	1.994384e+01
1.300000e+03	inlet	0.000000e+00	0.000000e+00	0.000000e+00
1.300000e+03	outlet	0.000000e+00	0.000000e+00	0.000000e+00
1.300000e+03	inWall	5.883090e+03	5.883090e+03	2.601679e+03
1.300000e+03	cool1	-5.062866e+01	-2.036177e+01	-9.780496e+00
1.300000e+03	cool2	-1.492645e+01	2.512616e-01	-2.224487e+00
1.300000e+03	cool3	1.168964e+01	1.133502e+02	1.591825e+02
1.300000e+03	cool4	8.252879e+01	1.462420e+02	3.066226e+01
1.300000e+03	cool5	4.642048e+01	1.016143e+02	1.879182e+01
1.400000e+03	inlet	0.000000e+00	0.000000e+00	0.000000e+00
1.400000e+03	outlet	0.000000e+00	0.000000e+00	0.000000e+00
1.400000e+03	inWall	5.883090e+03	5.883090e+03	2.601679e+03
1.400000e+03	cool1	-5.365353e+01	-2.305552e+01	-1.055214e+01
1.400000e+03	cool2	-1.740251e+01	-2.222305e+00	-2.915400e+00
1.400000e+03	cool3	8.975656e+00	1.101580e+02	1.489195e+02
1.400000e+03	cool4	7.972807e+01	1.410284e+02	2.962982e+01
1.400000e+03	cool5	4.367482e+01	9.586442e+01	1.772897e+01
1.500000e+03	inlet	0.000000e+00	0.000000e+00	0.000000e+00
1.500000e+03	outlet	0.000000e+00	0.000000e+00	0.000000e+00
1.500000e+03	inWall	5.883090e+03	5.883090e+03	2.601679e+03
1.500000e+03	cool1	-5.680235e+01	-2.556969e+01	-1.127081e+01
1.500000e+03	cool2	-1.970976e+01	-4.498301e+00	-3.561869e+00
1.500000e+03	cool3	6.443098e+00	1.070999e+02	1.393295e+02
1.500000e+03	cool4	7.709854e+01	1.362224e+02	2.866737e+01
1.500000e+03	cool5	4.112473e+01	9.053481e+01	1.674127e+01
1.600000e+03	inlet	0.000000e+00	0.000000e+00	0.000000e+00
1.600000e+03	outlet	0.000000e+00	0.000000e+00	0.000000e+00
1.600000e+03	inWall	5.883090e+03	5.883090e+03	2.601679e+03
1.600000e+03	cool1	-6.013020e+01	-2.791859e+01	-1.194449e+01
1.600000e+03	cool2	-2.186242e+01	-6.606856e+00	-4.167798e+00
1.600000e+03	cool3	3.263907e+00	1.041999e+02	1.303182e+02
1.600000e+03	cool4	7.460932e+01	1.317682e+02	2.776450e+01
1.600000e+03	cool5	3.874210e+01	8.556669e+01	1.581805e+01
1.700000e+03	inlet	0.000000e+00	0.000000e+00	0.000000e+00
1.700000e+03	outlet	0.000000e+00	0.000000e+00	0.000000e+00
1.700000e+03	inWall	5.883090e+03	5.883090e+03	2.601679e+03
1.700000e+03	cool1	-6.328387e+01	-3.012483e+01	-1.257817e+01
1.700000e+03	cool2	-2.389838e+01	-8.575713e+00	-4.736948e+00
1.700000e+03	cool3	2.802911e-01	1.014741e+02	1.218110e+02
1.700000e+03	cool4	7.225348e+01	1.276428e+02	2.691522e+01
1.700000e+03	cool5	3.651079e+01	8.092334e+01	1.495093e+01
1.800000e+03	inlet	0.000000e+00	0.000000e+00	0.000000e+00
1.800000e+03	outlet	0.000000e+00	0.000000e+00	0.000000e+00
1.800000e+03	inWall	5.883090e+03	5.883090e+03	2.601679e+03
1.800000e+03	cool1	-6.627952e+01	-3.191829e+01	-1.317637e+01
1.800000e+03	cool2	-2.583470e+01	-1.041253e+01	-5.272314e+00
1.800000e+03	cool3	-2.529888e+00	9.891578e+01	1.137581e+02
1.800000e+03	cool4	7.000863e+01	1.240730e+02	2.611097e+01
1.800000e+03	cool5	3.439017e+01	7.650568e+01	1.413530e+01
1.900000e+03	inlet	0.000000e+00	0.000000e+00	0.000000e+00
1.900000e+03	outlet	0.000000e+00	0.000000e+00	0.000000e+00
1.900000e+03	inWall	5.883090e+03	5.883090e+03	2.601679e+03
1.900000e+03	cool1	-6.912064e+01	-3.344288e+01	-1.374378e+01
1.900000e+03	cool2	-2.780098e+01	-1.213324e+01	-5.777008e+00
1.900000e+03	cool3	-5.186252e+00	9.652811e+01	1.061228e+02
1.900000e+03	cool4	6.786533e+01	1.206800e+02	2.534862e+01
1.900000e+03	cool5	3.237544e+01	7.229834e+01	1.336285e+01
2.000000e+03	inlet	0.000000e+00	0.000000e+00	0.000000e+00
2.000000e+03	outlet	0.000000e+00	0.000000e+00	0.000000e+00
2.000000e+03	inWall	5.883090e+03	5.883090e+03	2.601679e+03
2.000000e+03	cool1	-7.182181e+01	-3.487462e+01	-1.428349e+01
2.000000e+03	cool2	-3.003913e+01	-1.374610e+01	-6.254852e+00
2.000000e+03	cool3	-8.239847e+00	9.430099e+01	9.887147e+01
2.000000e+03	cool4	6.581018e+01	1.174426e+02	2.462191e+01
2.000000e+03	cool5	3.044952e+01	6.833397e+01	1.262776e+01
2.100000e+03	inlet	0.000000e+00	0.000000e+00	0.000000e+00
2.100000e+03	outlet	0.000000e+00	0.000000e+00	0.000000e+00
2.100000e+03	inWall	5.883090e+03	5.883090e+03	2.601679e+03
2.100000e+03	cool1	-7.440226e+01	-3.622785e+01	-1.479642e+01
2.100000e+03	cool2	-3.215871e+01	-1.519873e+01	-6.710339e+00
2.100000e+03	cool3	-1.125592e+01	9.220104e+01	9.195012e+01
2.100000e+03	cool4	6.382772e+01	1.143395e+02	2.392832e+01
2.100000e+03	cool5	2.860140e+01	6.456336e+01	1.192646e+01
2.200000e+03	inlet	0.000000e+00	0.000000e+00	0.000000e+00
2.200000e+03	outlet	0.000000e+00	0.000000e+00	0.000000e+00
2.200000e+03	inWall	5.883090e+03	5.883090e+03	2.601679e+03
2.200000e+03	cool1	-7.687918e+01	-3.750576e+01	-1.528396e+01
2.200000e+03	cool2	-3.417292e+01	-1.645577e+01	-7.142592e+00
2.200000e+03	cool3	-1.416280e+01	9.022162e+01	8.534922e+01
2.200000e+03	cool4	6.190566e+01	1.113674e+02	2.326464e+01
2.200000e+03	cool5	2.681732e+01	6.096710e+01	1.125654e+01
2.300000e+03	inlet	0.000000e+00	0.000000e+00	0.000000e+00
2.300000e+03	outlet	0.000000e+00	0.000000e+00	0.000000e+00
2.300000e+03	inWall	5.883090e+03	5.883090e+03	2.601679e+03
2.300000e+03	cool1	-7.925291e+01	-3.872448e+01	-1.574800e+01
2.300000e+03	cool2	-3.609211e+01	-1.775913e+01	-7.557435e+00
2.300000e+03	cool3	-1.696296e+01	8.834113e+01	7.904471e+01
2.300000e+03	cool4	6.008248e+01	1.085165e+02	2.262960e+01
2.300000e+03	cool5	2.510055e+01	5.752863e+01	1.061511e+01
2.400000e+03	inlet	0.000000e+00	0.000000e+00	0.000000e+00
2.400000e+03	outlet	0.000000e+00	0.000000e+00	0.000000e+00
2.400000e+03	inWall	5.883090e+03	5.883090e+03	2.601679e+03
2.400000e+03	cool1	-8.152341e+01	-3.989012e+01	-1.619284e+01
2.400000e+03	cool2	-3.792483e+01	-1.899373e+01	-7.952261e+00
2.400000e+03	cool3	-1.966580e+01	8.656968e+01	7.300573e+01
2.400000e+03	cool4	5.834000e+01	1.057734e+02	2.202038e+01
2.400000e+03	cool5	2.352333e+01	5.422478e+01	1.000302e+01
2.500000e+03	inlet	0.000000e+00	0.000000e+00	0.000000e+00
2.500000e+03	outlet	0.000000e+00	0.000000e+00	0.000000e+00
2.500000e+03	inWall	5.883090e+03	5.883090e+03	2.601679e+03
2.500000e+03	cool1	-8.368855e+01	-4.100581e+01	-1.661990e+01
2.500000e+03	cool2	-3.967375e+01	-2.018711e+01	-8.328915e+00
2.500000e+03	cool3	-2.215514e+01	8.489314e+01	6.722118e+01
2.500000e+03	cool4	5.669044e+01	1.031349e+02	2.143232e+01
2.500000e+03	cool5	2.192191e+01	5.104809e+01	9.428368e+00
2.600000e+03	inlet	0.000000e+00	0.000000e+00	0.000000e+00
2.600000e+03	outlet	0.000000e+00	0.000000e+00	0.000000e+00
2.600000e+03	inWall	5.883090e+03	5.883090e+03	2.601679e+03
2.600000e+03	cool1	-8.576061e+01	-4.207818e+01	-1.703030e+01
2.600000e+03	cool2	-4.134346e+01	-2.134366e+01	-8.689263e+00
2.600000e+03	cool3	-2.455764e+01	8.322768e+01	6.167691e+01
2.600000e+03	cool4	5.509950e+01	1.005891e+02	2.086616e+01
2.600000e+03	cool5	2.036561e+01	4.798423e+01	8.862260e+00
2.700000e+03	inlet	0.000000e+00	0.000000e+00	0.000000e+00
2.700000e+03	outlet	0.000000e+00	0.000000e+00	0.000000e+00
2.700000e+03	inWall	5.883090e+03	5.883090e+03	2.601679e+03
2.700000e+03	cool1	-8.774360e+01	-4.310404e+01	-1.742360e+01
2.700000e+03	cool2	-4.293688e+01	-2.246273e+01	-9.033456e+00
2.700000e+03	cool3	-2.689755e+01	8.161717e+01	5.635400e+01
2.700000e+03	cool4	5.358640e+01	9.813116e+01	2.032005e+01
2.700000e+03	cool5	1.886688e+01	4.502838e+01	8.315148e+00
2.800000e+03	inlet	0.000000e+00	0.000000e+00	0.000000e+00
2.800000e+03	outlet	0.000000e+00	0.000000e+00	0.000000e+00
2.800000e+03	inWall	5.883090e+03	5.883090e+03	2.601679e+03
2.800000e+03	cool1	-8.964016e+01	-4.408225e+01	-1.780044e+01
2.800000e+03	cool2	-4.446079e+01	-2.353533e+01	-9.362165e+00
2.800000e+03	cool3	-2.916724e+01	8.006809e+01	5.124272e+01
2.800000e+03	cool4	5.211956e+01	9.575535e+01	1.978972e+01
2.800000e+03	cool5	1.741517e+01	4.217357e+01	7.785783e+00
2.900000e+03	inlet	0.000000e+00	0.000000e+00	0.000000e+00
2.900000e+03	outlet	0.000000e+00	0.000000e+00	0.000000e+00
2.900000e+03	inWall	5.883090e+03	5.883090e+03	2.601679e+03
2.900000e+03	cool1	-9.145579e+01	-4.500953e+01	-1.816241e+01
2.900000e+03	cool2	-4.591875e+01	-2.456675e+01	-9.676011e+00
2.900000e+03	cool3	-3.136978e+01	7.857463e+01	4.632751e+01
2.900000e+03	cool4	5.069907e+01	9.345430e+01	1.927489e+01
2.900000e+03	cool5	1.601310e+01	3.941372e+01	7.273310e+00
3.000000e+03	inlet	0.000000e+00	0.000000e+00	0.000000e+00
3.000000e+03	outlet	0.000000e+00	0.000000e+00	0.000000e+00
3.000000e+03	inWall	5.883090e+03	5.883090e+03	2.601679e+03
3.000000e+03	cool1	-9.319594e+01	-4.588771e+01	-1.850996e+01
3.000000e+03	cool2	-4.731245e+01	-2.556667e+01	-9.977443e+00
3.000000e+03	cool3	-3.350555e+01	7.708967e+01	4.159516e+01
3.000000e+03	cool4	4.932334e+01	9.122681e+01	1.877581e+01
3.000000e+03	cool5	1.465832e+01	3.674274e+01	6.777018e+00
3.100000e+03	inlet	0.000000e+00	0.000000e+00	0.000000e+00
3.100000e+03	outlet	0.000000e+00	0.000000e+00	0.000000e+00
3.100000e+03	inWall	5.883090e+03	5.883090e+03	2.601679e+03
3.100000e+03	cool1	-9.486181e+01	-4.671950e+01	-1.884192e+01
3.100000e+03	cool2	-4.864651e+01	-2.652041e+01	-1.026690e+01
3.100000e+03	cool3	-3.557897e+01	7.569006e+01	3.703877e+01
3.100000e+03	cool4	4.799263e+01	8.906117e+01	1.829163e+01
3.100000e+03	cool5	1.334727e+01	3.415567e+01	6.295523e+00
3.200000e+03	inlet	0.000000e+00	0.000000e+00	0.000000e+00
3.200000e+03	outlet	0.000000e+00	0.000000e+00	0.000000e+00
3.200000e+03	inWall	5.883090e+03	5.883090e+03	2.601679e+03
3.200000e+03	cool1	-9.645933e+01	-4.751764e+01	-1.915905e+01
3.200000e+03	cool2	-4.992988e+01	-2.744281e+01	-1.054461e+01
3.200000e+03	cool3	-3.759006e+01	7.435273e+01	3.264557e+01
3.200000e+03	cool4	4.670335e+01	8.695671e+01	1.782176e+01
3.200000e+03	cool5	1.207783e+01	3.164695e+01	5.828297e+00
3.300000e+03	inlet	0.000000e+00	0.000000e+00	0.000000e+00
3.300000e+03	outlet	0.000000e+00	0.000000e+00	0.000000e+00
3.300000e+03	inWall	5.883090e+03	5.883090e+03	2.601679e+03
3.300000e+03	cool1	-9.799421e+01	-4.828150e+01	-1.946368e+01
3.300000e+03	cool2	-5.116428e+01	-2.833276e+01	-1.081160e+01
3.300000e+03	cool3	-3.954102e+01	7.307151e+01	2.840802e+01
3.300000e+03	cool4	4.545117e+01	8.491170e+01	1.736508e+01
3.300000e+03	cool5	1.084692e+01	2.921284e+01	5.374746e+00
3.400000e+03	inlet	0.000000e+00	0.000000e+00	0.000000e+00
3.400000e+03	outlet	0.000000e+00	0.000000e+00	0.000000e+00
3.400000e+03	inWall	5.883090e+03	5.883090e+03	2.601679e+03
3.400000e+03	cool1	-9.946894e+01	-4.900966e+01	-1.975740e+01
3.400000e+03	cool2	-5.235028e+01	-2.918868e+01	-1.106847e+01
3.400000e+03	cool3	-4.143449e+01	7.184718e+01	2.431953e+01
3.400000e+03	cool4	4.423468e+01	8.292195e+01	1.692148e+01
3.400000e+03	cool5	9.653610e+00	2.685086e+01	4.933853e+00
3.500000e+03	inlet	0.000000e+00	0.000000e+00	0.000000e+00
3.500000e+03	outlet	0.000000e+00	0.000000e+00	0.000000e+00
3.500000e+03	inWall	5.883090e+03	5.883090e+03	2.601679e+03
3.500000e+03	cool1	-1.008868e+02	-4.969741e+01	-2.003920e+01
3.500000e+03	cool2	-5.348996e+01	-3.000883e+01	-1.131555e+01
3.500000e+03	cool3	-4.327477e+01	7.067748e+01	2.037130e+01
3.500000e+03	cool4	4.305024e+01	8.098381e+01	1.649019e+01
3.500000e+03	cool5	8.496198e+00	2.455450e+01	4.505176e+00
3.600000e+03	inlet	0.000000e+00	0.000000e+00	0.000000e+00
3.600000e+03	outlet	0.000000e+00	0.000000e+00	0.000000e+00
3.600000e+03	inWall	5.883090e+03	5.883090e+03	2.601679e+03
3.600000e+03	cool1	-1.022482e+02	-5.036673e+01	-2.031083e+01
3.600000e+03	cool2	-5.458646e+01	-3.080896e+01	-1.155316e+01
3.600000e+03	cool3	-4.506822e+01	6.955908e+01	1.655773e+01
3.600000e+03	cool4	4.189316e+01	7.909492e+01	1.607058e+01
3.600000e+03	cool5	7.376819e+00	2.232226e+01	4.088094e+00
3.700000e+03	inlet	0.000000e+00	0.000000e+00	0.000000e+00
3.700000e+03	outlet	0.000000e+00	0.000000e+00	0.000000e+00
3.700000e+03	inWall	5.883090e+03	5.883090e+03	2.601679e+03
3.700000e+03	cool1	-1.035602e+02	-5.104038e+01	-2.057394e+01
3.700000e+03	cool2	-5.564209e+01	-3.156297e+01	-1.178179e+01
3.700000e+03	cool3	-4.681320e+01	6.848550e+01	1.287136e+01
3.700000e+03	cool4	4.076303e+01	7.725400e+01	1.566216e+01
3.700000e+03	cool5	6.293419e+00	2.015208e+01	3.682291e+00
3.800000e+03	inlet	0.000000e+00	0.000000e+00	0.000000e+00
3.800000e+03	outlet	0.000000e+00	0.000000e+00	0.000000e+00
3.800000e+03	inWall	5.883090e+03	5.883090e+03	2.601679e+03
3.800000e+03	cool1	-1.048220e+02	-5.170329e+01	-2.082722e+01
3.800000e+03	cool2	-5.665674e+01	-3.228673e+01	-1.200171e+01
3.800000e+03	cool3	-4.851039e+01	6.746093e+01	9.310009e+00
3.800000e+03	cool4	3.966212e+01	7.546029e+01	1.526436e+01
3.800000e+03	cool5	5.240126e+00	1.804024e+01	3.287420e+00
3.900000e+03	inlet	0.000000e+00	0.000000e+00	0.000000e+00
3.900000e+03	outlet	0.000000e+00	0.000000e+00	0.000000e+00
3.900000e+03	inWall	5.883090e+03	5.883090e+03	2.601679e+03
3.900000e+03	cool1	-1.060470e+02	-5.234385e+01	-2.107147e+01
3.900000e+03	cool2	-5.763464e+01	-3.298138e+01	-1.221374e+01
3.900000e+03	cool3	-5.016506e+01	6.647689e+01	5.863660e+00
3.900000e+03	cool4	3.858930e+01	7.371320e+01	1.487680e+01
3.900000e+03	cool5	4.225606e+00	1.613761e+01	2.903044e+00
4.000000e+03	inlet	0.000000e+00	0.000000e+00	0.000000e+00
4.000000e+03	outlet	0.000000e+00	0.000000e+00	0.000000e+00
4.000000e+03	inWall	5.883090e+03	5.883090e+03	2.601679e+03
4.000000e+03	cool1	-1.072173e+02	-5.296406e+01	-2.130426e+01
4.000000e+03	cool2	-5.860496e+01	-3.365891e+01	-1.241948e+01
4.000000e+03	cool3	-5.177202e+01	6.553310e+01	2.524830e+00
4.000000e+03	cool4	3.754603e+01	7.201118e+01	1.449903e+01
4.000000e+03	cool5	3.233327e+00	1.464838e+01	2.528484e+00
4.100000e+03	inlet	0.000000e+00	0.000000e+00	0.000000e+00
4.100000e+03	outlet	0.000000e+00	0.000000e+00	0.000000e+00
4.100000e+03	inWall	5.883090e+03	5.883090e+03	2.601679e+03
4.100000e+03	cool1	-1.083428e+02	-5.356146e+01	-2.153272e+01
4.100000e+03	cool2	-5.950516e+01	-3.430790e+01	-1.261617e+01
4.100000e+03	cool3	-5.334695e+01	6.463493e+01	-7.050711e-01
4.100000e+03	cool4	3.645333e+01	7.035318e+01	1.412932e+01
4.100000e+03	cool5	2.259088e+00	1.319445e+01	2.163920e+00
4.200000e+03	inlet	0.000000e+00	0.000000e+00	0.000000e+00
4.200000e+03	outlet	0.000000e+00	0.000000e+00	0.000000e+00
4.200000e+03	inWall	5.883090e+03	5.883090e+03	2.601679e+03
4.200000e+03	cool1	-1.094238e+02	-5.413603e+01	-2.175031e+01
4.200000e+03	cool2	-6.037297e+01	-3.493035e+01	-1.280596e+01
4.200000e+03	cool3	-5.486830e+01	6.379392e+01	-3.829228e+00
4.200000e+03	cool4	3.546798e+01	6.873962e+01	1.377001e+01
4.200000e+03	cool5	1.323523e+00	1.177703e+01	1.808238e+00
4.300000e+03	inlet	0.000000e+00	0.000000e+00	0.000000e+00
4.300000e+03	outlet	0.000000e+00	0.000000e+00	0.000000e+00
4.300000e+03	inWall	5.883090e+03	5.883090e+03	2.601679e+03
4.300000e+03	cool1	-1.104650e+02	-5.469093e+01	-2.195975e+01
4.300000e+03	cool2	-6.121393e+01	-3.553114e+01	-1.298908e+01
4.300000e+03	cool3	-5.634681e+01	6.298198e+01	-6.855285e+00
4.300000e+03	cool4	3.451032e+01	6.716835e+01	1.341945e+01
4.300000e+03	cool5	4.132375e-01	1.039517e+01	1.461448e+00
4.400000e+03	inlet	0.000000e+00	0.000000e+00	0.000000e+00
4.400000e+03	outlet	0.000000e+00	0.000000e+00	0.000000e+00
4.400000e+03	inWall	5.883090e+03	5.883090e+03	2.601679e+03
4.400000e+03	cool1	-1.114688e+02	-5.522711e+01	-2.216153e+01
4.400000e+03	cool2	-6.202737e+01	-3.610199e+01	-1.316598e+01
4.400000e+03	cool3	-5.778409e+01	6.219797e+01	-9.788687e+00
4.400000e+03	cool4	3.357707e+01	6.563812e+01	1.307731e+01
4.400000e+03	cool5	-4.766816e-01	9.048240e+00	1.123242e+00
4.500000e+03	inlet	0.000000e+00	0.000000e+00	0.000000e+00
4.500000e+03	outlet	0.000000e+00	0.000000e+00	0.000000e+00
4.500000e+03	inWall	5.883090e+03	5.883090e+03	2.601679e+03
4.500000e+03	cool1	-1.124273e+02	-5.574523e+01	-2.235620e+01
4.500000e+03	cool2	-6.281214e+01	-3.665635e+01	-1.333664e+01
4.500000e+03	cool3	-5.918204e+01	6.144310e+01	-1.263238e+01
4.500000e+03	cool4	3.266835e+01	6.414613e+01	1.274287e+01
4.500000e+03	cool5	-1.713282e+00	7.735065e+00	7.934050e-01
4.600000e+03	inlet	0.000000e+00	0.000000e+00	0.000000e+00
4.600000e+03	outlet	0.000000e+00	0.000000e+00	0.000000e+00
4.600000e+03	inWall	5.883090e+03	5.883090e+03	2.601679e+03
4.600000e+03	cool1	-1.133568e+02	-5.624605e+01	-2.254422e+01
4.600000e+03	cool2	-6.357099e+01	-3.718770e+01	-1.350118e+01
4.600000e+03	cool3	-6.054137e+01	6.071693e+01	-1.538374e+01
4.600000e+03	cool4	3.178574e+01	6.269458e+01	1.241726e+01
4.600000e+03	cool5	-3.005095e+00	6.456376e+00	4.717834e-01
4.700000e+03	inlet	0.000000e+00	0.000000e+00	0.000000e+00
4.700000e+03	outlet	0.000000e+00	0.000000e+00	0.000000e+00
4.700000e+03	inWall	5.883090e+03	5.883090e+03	2.601679e+03
4.700000e+03	cool1	-1.142552e+02	-5.673129e+01	-2.272586e+01
4.700000e+03	cool2	-6.429771e+01	-3.770520e+01	-1.366023e+01
4.700000e+03	cool3	-6.186348e+01	6.001549e+01	-1.805285e+01
4.700000e+03	cool4	3.092374e+01	6.128076e+01	1.209926e+01
4.700000e+03	cool5	-4.266049e+00	5.210797e+00	1.578082e-01
4.800000e+03	inlet	0.000000e+00	0.000000e+00	0.000000e+00
4.800000e+03	outlet	0.000000e+00	0.000000e+00	0.000000e+00
4.800000e+03	inWall	5.883090e+03	5.883090e+03	2.601679e+03
4.800000e+03	cool1	-1.150997e+02	-5.720079e+01	-2.290043e+01
4.800000e+03	cool2	-6.499534e+01	-3.820130e+01	-1.381349e+01
4.800000e+03	cool3	-6.315016e+01	5.933699e+01	-2.064067e+01
4.800000e+03	cool4	3.008588e+01	5.990321e+01	1.178908e+01
4.800000e+03	cool5	-5.496209e+00	3.997128e+00	-1.484908e-01
4.900000e+03	inlet	0.000000e+00	0.000000e+00	0.000000e+00
4.900000e+03	outlet	0.000000e+00	0.000000e+00	0.000000e+00
4.900000e+03	inWall	5.883090e+03	5.883090e+03	2.601679e+03
4.900000e+03	cool1	-1.159339e+02	-5.765510e+01	-2.306920e+01
4.900000e+03	cool2	-6.566832e+01	-3.865737e+01	-1.396174e+01
4.900000e+03	cool3	-6.440012e+01	5.868267e+01	-2.314743e+01
4.900000e+03	cool4	2.927233e+01	5.856180e+01	1.148664e+01
4.900000e+03	cool5	-6.695121e+00	2.815524e+00	-4.471571e-01
5.000000e+03	inlet	0.000000e+00	0.000000e+00	0.000000e+00
5.000000e+03	outlet	0.000000e+00	0.000000e+00	0.000000e+00
5.000000e+03	inWall	5.883090e+03	5.883090e+03	2.601679e+03
5.000000e+03	cool1	-1.167403e+02	-5.809450e+01	-2.323208e+01
5.000000e+03	cool2	-6.631748e+01	-3.909561e+01	-1.410509e+01
5.000000e+03	cool3	-6.561491e+01	5.805093e+01	-2.557911e+01
5.000000e+03	cool4	2.848326e+01	5.725541e+01	1.119195e+01
5.000000e+03	cool5	-7.860266e+00	1.683602e+00	-7.385304e-01
5.100000e+03	inlet	0.000000e+00	0.000000e+00	0.000000e+00
5.100000e+03	outlet	0.000000e+00	0.000000e+00	0.000000e+00
5.100000e+03	inWall	5.883090e+03	5.883090e+03	2.601679e+03
5.100000e+03	cool1	-1.175199e+02	-5.852203e+01	-2.338920e+01
5.100000e+03	cool2	-6.694255e+01	-3.952098e+01	-1.424437e+01
5.100000e+03	cool3	-6.679697e+01	5.744144e+01	-2.794265e+01
5.100000e+03	cool4	2.771215e+01	5.598095e+01	1.090377e+01
5.100000e+03	cool5	-8.998302e+00	9.861571e-01	-1.023179e+00
5.200000e+03	inlet	0.000000e+00	0.000000e+00	0.000000e+00
5.200000e+03	outlet	0.000000e+00	0.000000e+00	0.000000e+00
5.200000e+03	inWall	5.883090e+03	5.883090e+03	2.601679e+03
5.200000e+03	cool1	-1.182764e+02	-5.893309e+01	-2.354138e+01
5.200000e+03	cool2	-6.754539e+01	-3.993310e+01	-1.437878e+01
5.200000e+03	cool3	-6.794686e+01	5.685617e+01	-3.023129e+01
5.200000e+03	cool4	2.696323e+01	5.474053e+01	1.062332e+01
5.200000e+03	cool5	-1.010620e+01	3.071987e-01	-1.300604e+00
5.300000e+03	inlet	0.000000e+00	0.000000e+00	0.000000e+00
5.300000e+03	outlet	0.000000e+00	0.000000e+00	0.000000e+00
5.300000e+03	inWall	5.883090e+03	5.883090e+03	2.601679e+03
5.300000e+03	cool1	-1.190090e+02	-5.932875e+01	-2.368835e+01
5.300000e+03	cool2	-6.813126e+01	-4.032992e+01	-1.450872e+01
5.300000e+03	cool3	-6.906519e+01	5.628736e+01	-3.245441e+01
5.300000e+03	cool4	2.623502e+01	5.353052e+01	1.034968e+01
5.300000e+03	cool5	-1.118568e+01	-3.560488e-01	-1.571441e+00
5.400000e+03	inlet	0.000000e+00	0.000000e+00	0.000000e+00
5.400000e+03	outlet	0.000000e+00	0.000000e+00	0.000000e+00
5.400000e+03	inWall	5.883090e+03	5.883090e+03	2.601679e+03
5.400000e+03	cool1	-1.197274e+02	-5.971318e+01	-2.383009e+01
5.400000e+03	cool2	-6.869776e+01	-4.071226e+01	-1.463410e+01
5.400000e+03	cool3	-7.015219e+01	5.573881e+01	-3.460945e+01
5.400000e+03	cool4	2.552886e+01	5.235193e+01	1.008324e+01
5.400000e+03	cool5	-1.223629e+01	-1.002347e+00	-1.835500e+00
5.500000e+03	inlet	0.000000e+00	0.000000e+00	0.000000e+00
5.500000e+03	outlet	0.000000e+00	0.000000e+00	0.000000e+00
5.500000e+03	inWall	5.883090e+03	5.883090e+03	2.601679e+03
5.500000e+03	cool1	-1.204146e+02	-6.008691e+01	-2.396757e+01
5.500000e+03	cool2	-6.924620e+01	-4.108265e+01	-1.475538e+01
5.500000e+03	cool3	-7.120951e+01	5.520894e+01	-3.670277e+01
5.500000e+03	cool4	2.484142e+01	5.120242e+01	9.823504e+00
5.500000e+03	cool5	-1.325921e+01	-1.634033e+00	-2.093220e+00
5.600000e+03	inlet	0.000000e+00	0.000000e+00	0.000000e+00
5.600000e+03	outlet	0.000000e+00	0.000000e+00	0.000000e+00
5.600000e+03	inWall	5.883090e+03	5.883090e+03	2.601679e+03
5.600000e+03	cool1	-1.210788e+02	-6.044556e+01	-2.410066e+01
5.600000e+03	cool2	-6.977618e+01	-4.143836e+01	-1.487218e+01
5.600000e+03	cool3	-7.223673e+01	5.469795e+01	-3.873186e+01
5.600000e+03	cool4	2.417605e+01	5.008307e+01	9.570874e+00
5.600000e+03	cool5	-1.425360e+01	-2.248967e+00	-2.344283e+00
5.700000e+03	inlet	0.000000e+00	0.000000e+00	0.000000e+00
5.700000e+03	outlet	0.000000e+00	0.000000e+00	0.000000e+00
5.700000e+03	inWall	5.883090e+03	5.883090e+03	2.601679e+03
5.700000e+03	cool1	-1.217234e+02	-6.079464e+01	-2.422932e+01
5.700000e+03	cool2	-7.028871e+01	-4.178393e+01	-1.498554e+01
5.700000e+03	cool3	-7.323537e+01	5.420476e+01	-4.070221e+01
5.700000e+03	cool4	2.352976e+01	4.899277e+01	9.324609e+00
5.700000e+03	cool5	-1.521666e+01	-2.849428e+00	-2.589389e+00
5.800000e+03	inlet	0.000000e+00	0.000000e+00	0.000000e+00
5.800000e+03	outlet	0.000000e+00	0.000000e+00	0.000000e+00
5.800000e+03	inWall	5.883090e+03	5.883090e+03	2.601679e+03
5.800000e+03	cool1	-1.223469e+02	-6.113257e+01	-2.435384e+01
5.800000e+03	cool2	-7.078598e+01	-4.211795e+01	-1.509526e+01
5.800000e+03	cool3	-7.420742e+01	5.372782e+01	-4.261802e+01
5.800000e+03	cool4	2.290003e+01	4.792150e+01	9.083981e+00
5.800000e+03	cool5	-1.615790e+01	-3.438333e+00	-2.828776e+00
5.900000e+03	inlet	0.000000e+00	0.000000e+00	0.000000e+00
5.900000e+03	outlet	0.000000e+00	0.000000e+00	0.000000e+00
5.900000e+03	inWall	5.883090e+03	5.883090e+03	2.601679e+03
5.900000e+03	cool1	-1.229523e+02	-6.145837e+01	-2.447419e+01
5.900000e+03	cool2	-7.126830e+01	-4.244050e+01	-1.520157e+01
5.900000e+03	cool3	-7.515091e+01	5.326722e+01	-4.447394e+01
5.900000e+03	cool4	2.229084e+01	4.688633e+01	8.851422e+00
5.900000e+03	cool5	-1.707836e+01	-4.008708e+00	-3.060774e+00
6.000000e+03	inlet	0.000000e+00	0.000000e+00	0.000000e+00
6.000000e+03	outlet	0.000000e+00	0.000000e+00	0.000000e+00
6.000000e+03	inWall	5.883090e+03	5.883090e+03	2.601679e+03
6.000000e+03	cool1	-1.235388e+02	-6.177417e+01	-2.459071e+01
6.000000e+03	cool2	-7.173284e+01	-4.275232e+01	-1.530409e+01
6.000000e+03	cool3	-7.606915e+01	5.282184e+01	-4.627487e+01
6.000000e+03	cool4	2.169852e+01	4.587899e+01	8.625022e+00
6.000000e+03	cool5	-1.797011e+01	-4.564766e+00	-3.286902e+00
6.100000e+03	inlet	0.000000e+00	0.000000e+00	0.000000e+00
6.100000e+03	outlet	0.000000e+00	0.000000e+00	0.000000e+00
6.100000e+03	inWall	5.883090e+03	5.883090e+03	2.601679e+03
6.100000e+03	cool1	-1.241075e+02	-6.207969e+01	-2.470356e+01
6.100000e+03	cool2	-7.218339e+01	-4.305394e+01	-1.540346e+01
6.100000e+03	cool3	-7.696127e+01	5.239009e+01	-4.802203e+01
6.100000e+03	cool4	2.112376e+01	4.489955e+01	8.405099e+00
6.100000e+03	cool5	-1.883890e+01	-5.106222e+00	-3.506969e+00
6.200000e+03	inlet	0.000000e+00	0.000000e+00	0.000000e+00
6.200000e+03	outlet	0.000000e+00	0.000000e+00	0.000000e+00
6.200000e+03	inWall	5.883090e+03	5.883090e+03	2.601679e+03
6.200000e+03	cool1	-1.246590e+02	-6.237802e+01	-2.481286e+01
6.200000e+03	cool2	-7.261917e+01	-4.334636e+01	-1.549972e+01
6.200000e+03	cool3	-7.782875e+01	5.197273e+01	-4.971970e+01
6.200000e+03	cool4	2.056532e+01	4.394708e+01	8.191224e+00
6.200000e+03	cool5	-1.968384e+01	-5.633585e+00	-3.721147e+00
6.300000e+03	inlet	0.000000e+00	0.000000e+00	0.000000e+00
6.300000e+03	outlet	0.000000e+00	0.000000e+00	0.000000e+00
6.300000e+03	inWall	5.883090e+03	5.883090e+03	2.601679e+03
6.300000e+03	cool1	-1.251939e+02	-6.266589e+01	-2.491859e+01
6.300000e+03	cool2	-7.304145e+01	-4.362910e+01	-1.559295e+01
6.300000e+03	cool3	-7.867098e+01	5.156756e+01	-5.136749e+01
6.300000e+03	cool4	2.002388e+01	4.302181e+01	7.983570e+00
6.300000e+03	cool5	-2.050559e+01	-6.146453e+00	-3.929402e+00
6.400000e+03	inlet	0.000000e+00	0.000000e+00	0.000000e+00