# Probe 0 (0.0015 0.0015 0)
# Probe 1 (0.0015 0.0015 0.002)
# Probe 2 (0.0015 0.0015 0.004)
# Probe 3 (0.0015 0.0015 0.006)
# Probe 4 (0.0015 0.0015 0.008)
# Probe 5 (0.0015 0.0015 0.01)
# Probe 6 (0.0015 0.0015 0.012)
# Probe 7 (0.0015 0.0015 0.014)
# Probe 8 (0.0015 0.0015 0.016)
# Probe 9 (0.0015 0.0015 0.018)
# Probe 10 (0.0015 0.0015 0.02)
# Time        0             1             2             3             4             5             6             7             8             9             10           
50            157759        108569        73830.5       59908.5       54687.2       52717.2       51750.4       50662.7       48328.2       42726.6       30035.2      
100           176303        134474        93220.8       70366.2       59406.1       54376.6       51708.7       49323.9       45610.9       38792.2       26879.5      
150           185344        149535        109334        81972.2       66030.3       57448.7       52498.5       48534.3       43630.5       36210.4       25095.9      
200           190787        159115        121410        92602         73257         61375.8       53944.7       48258.8       42253.2       34437.2       23950.3      
250           194498        165801        130505        101651        80306.5       65760.9       55961.6       48530.2       41442.7       33251         23189.5      
300           197215        170758        137534        109173        86766.9       70253.7       58387         49290.7       41131.7       32519.1       22694.1      
350           199298        174588        143103        115411        92504.5       74613.1       61049.2       50442.8       41240.6       32149.5       22397        
400           200946        177635        147610        120622        97537.6       78709.1       63806.1       51882.7       41690.8       32073.3       22255.4      
450           202281        180113        151322        125013        101938        82488.2       66554.7       53514.6       42406.8       32232.9       22238        
500           203383        182165        154426        128750        105790        85941.4       69226.9       55258.8       43321.2       32579.7       22320        
550           204306        183889        157056        131961        109177        89083.7       71783.4       57053.4       44375.7       33070.6       22480.5      
600           205091        185357        159309        134745        112170        91939.7       74203.6       58852.1       45521.8       33668.9       22701.8      
650           205765        186620        161260        137181        114828        94537.1       76478.7       60622.2       46719.5       34343.1       22968.2      
700           206350        187718        162964        139327        117203        96901.9       78607.6       62340.1       47937.5       35066         23266.6      
750           206862        188681        164465        141231        119334        99058.9       80593.1       63990.5       49150.8       35815.8       23585.3      
800           207314        189532        165796        142931        121254        101029        82440.8       65563.2       50340.8       36574         23915.1      
850           207715        190289        166985        144458        122993        102834        84157.8       67052.4       51492.7       37324.3       24246.9      
900           208075        190966        168052        145834        124571        104487        85750.5       68455.9       52599.3       38060         24576.8      
950           208398        191576        169014        147080        126007        106003        87226.4       69772.9       53652.9       38771.3       24899.2      
1000          208689        192127        169886        148211        127318        107395        88592.7       71004.4       54649.5       39452.1       25210.4      
1050          208954        192627        170677        149242        128516        108674        89856.4       72152.5       55587.1       40098.4       25507.8      
1100          209194        193082        171398        150182        129613        109851        91024.3       73220.1       56465         40708.1       25789.9      
1150          209413        193496        172056        151042        130619        110933        92102.8       74210.6       57284.1       41280         26055.6      
1200          209614        193875        172657        151830        131542        111928        93097.8       75128         58045.9       41814.2       26304.5      
1250          209797        194222        173208        152552        132389        112843        94015.3       75976.3       58752.4       42311.3       26536.7      
1300          209965        194539        173713        153214        133167        113685        94860.6       76759.5       59406.4       42772.5       26752.6      
1350          210118        194830        174176        153821        133881        114458        95638.9       77482         60011         43200.1       26952.3      
1400          210259        195097        174601        154379        134537        115170        96355.1       78147.5       60568.6       43594.5       27137.5      
1450          210388        195342        174991        154891        135140        115823        97013.7       78760.1       61081.9       43958.1       27308.3      
1500          210507        195567        175349        155361        135693        116424        97618.9       79322.9       61554         44292.4       27465.7      
1550          210616        195773        175677        155793        136202        116976        98175         79840.5       61988.5       44600.5       27610.6      
1600          210716        195963        175979        156189        136668        117482        98685.4       80315.7       62387.4       44883.6       27743.4      
1650          210808        196137        176256        156553        137097        117947        99153.8       80751.6       62753.1       45142.9       27865.5      
1700          210893        196297        176510        156887        137490        118373        99583.7       81151.6       63089.1       45381.1       27977.7      
1750          210969        196443        176743        157193        137850        118764        99977.8       81518.5       63396.9       45599.7       28080.2      
1800          211042        196578        176956        157474        138181        119123        100339        81854.7       63678.8       45799.7       28174.4      
1850          211105        196700        177154        157732        138483        119451        100670        82162.5       63937.4       45983.1       28260.5      
1900          211167        196815        177333        157967        138761        119753        100973        82444.7       64173.9       46151         28339.3      
1950          211220        196917        177498        158184        139016        120028        101251        82702.8       64390.6       46304.2       28411.9      
2000          211272        197013        177649        158382        139249        120281        101506        82939.4       64588.9       46445.2       28477.7      
2050          211315        197098        177787        158564        139462        120512        101739        83155.9       64770.4       46573.7       28538.3      
2100          211360        197180        177914        158730        139658        120725        101952        83354         64936.5       46691.5       28593.5      
2150          211396        197251        178030        158883        139837        120918        102147        83535.1       65088.2       46798.8       28644.2      
2200          211433        197320        178136        159021        140000        121096        102325        83701         65227.2       46897.5       28690.4      
2250          211464        197379        178233        159149        140151        121258        102488        83852.5       65354.2       46987.2       28732.8      
2300          211495        197437        178322        159265        140287        121407        102638        83991.3       65470.4       47069.8       28771.4      
2350          211521        197487        178404        159373        140413        121542        102774        84118         65576.6       47144.8       28806.9      
2400          211547        197535        178479        159470        140528        121667        102899        84234.1       65673.7       47213.7       28839.2      
2450          211568        197576        178546        159560        140633        121780        103013        84340.1       65762.5       47276.5       28868.7      
2500          211591        197617        178609        159641        140729        121884        103118        84437.1       65843.7       47334.2       28895.7      
2550          211608        197651        178666        159717        140817        121979        103213        84525.6       65917.9       47386.5       28920.5      
2600          211627        197686        178718        159784        140897        122066        103301        84606.7       65985.7       47434.6       28943        
2650          211641        197714        178766        159847        140970        122145        103380        84680.7       66047.7       47478.4       28963.6      
2700          211657        197743        178809        159904        141037        122218        103453        84748.3       66104.2       47518.5       28982.4      
2750          211669        197767        178849        159957        141099        122284        103520        84810.1       66156         47555.1       28999.6      
2800          211682        197791        178886        160004        141154        122345        103581        84866.5       66203.2       47588.6       29015.3      
2850          211692        197811        178919        160048        141206        122400        103636        84918.1       66246.4       47619.1       29029.7      
2900          211704        197832        178949        160086        141252        122451        103687        84964.8       66285.7       47646.7       29042.8      
2950          211711        197847        178977        160124        141295        122497        103734        85008.2       66321.8       47672.4       29054.8      
3000          211722        197865        179002        160156        141334        122539        103776        85047.1       66354.6       47695.5       29065.7      
3050          211727        197877        179025        160188        141369        122577        103814        85083.3       66384.3       47717         29075.5      
3100          211736        197893        179046        160214        141402        122613        103850        85115.8       66412         47736.2       29084.8      
3150          211740        197903        179066        160241        141432        122644        103882        85145.9       66436.9       47754         29093.1      
3200          211748        197916        179083        160263        141459        122674        103912        85173.3       66460         47770.3       29100.7      
3250          211751        197924        179099        160284        141483        122700        103938        85197.7       66480.5       47784.6       29107.6      
3300          211759        197935        179113        160303        141506        122725        103962        85220.6       66499.5       47798.3       29113.8      
3350          211761        197942        179127        160321        141526        122747        103985        85241.5       66517.1       47810.6       29119.7      
3400          211767        197951        179139        160336        141545        122767        104005        85260.1       66532.8       47821.6       29124.9      
3450          211768        197956        179151        160351        141561        122785        104023        85276.8       66546.8       47831.6       29129.6      
3500          211774        197964        179160        160364        141578        122803        104041        85293.3       66560.3       47841.3       29134.1      
3550          211776        197969        179170        160376        141592        122818        104056        85307.3       66572.1       47849.7       29138        
3600          211779        197974        179177        160387        141604        122830        104069        85319.4       66582.4       47856.8       29141.5      
3650          211780        197978        179186        160397        141616        122844        104082        85331.3       66592.4       47863.9       29144.8      
3700          211784        197983        179191        160405        141625        122854        104092        85341.3       66600.5       47870         29147.5      
3750          211785        197986        179197        160412        141634        122864        104102        85350.3       66608.3       47875.3       29150.2      
3800          211787        197990        179202        160419        141642        122873        104111        85358.7       66615.2       47880.4       29152.4      
3850          211788        197993        179207        160426        141650        122881        104120        85366.3       66621.8       47884.9       29154.7      
3900          211790        197996        179212        160432        141657        122889        104127        85373.6       66627.7       47889.2       29156.6      
3950          211791        197998        179216        160437        141664        122895        104134        85380.1       66633.3       47893.1       29158.5      
4000          211793        198001        179220        160443        141669        122902        104141        85386.4       66638.4       47896.8       29160.2      
4050          211794        198003        179224        160447        141675        122908        104147        85392         66643.2       47900.1       29161.8      
4100          211795        198005        179227        160452        141680        122914        104153        85397.4       66647.5       47903.2       29163.2      
4150          211796        198007        179230        160455        141684        122918        104157        85401.3       66650.7       47905.5       29164.3      
4200          211797        198009        179233        160459        141689        122923        104162        85405.8       66654.9       47908.2       29165.6      
4250          211798        198010        179235        160462        141692        122926        104165        85408.8       66657.4       47909.9       29166.5      
4300          211799        198012        179238        160466        141696        122931        104170        85413.2       66660.6       47912.6       29167.5      
4350          211799        198013        179239        160468        141699        122934        104173        85415.8       66662.8       47914.1       29168.2      
4400          211800        198015        179242        160471        141703        122938        104177        85419.2       66666         47916.1       29169.4      
4450          211800        198015        179243        160472        141704        122940        104178        85421.1       66667.3       47917.3       29169.7      
4500          211801        198016        179244        160474        141707        122942        104181        85423.7       66669.5       47918.9       29170.4      
4550          211801        198017        179246        160476        141709        122945        104184        85426.3       66671.6       47920.4       29171.2      
4600          211802        198018        179247        160478        141711        122946        104186        85427.5       66673.1       47921.1       29171.8      
4650          211802        198018        179248        160479        141712        122948        104187        85429.2       66674.1       47922.2       29172        
4700          211802        198019        179248        160480        141713        122949        104189        85430.3       66675.4       47922.7       29172.6      
4750          211803        198019        179249        160481        141715        122951        104190        85431.8       66676.4       47923.8       29172.8      
4800          211803        198020        179250        160482        141716        122952        104191        85433         66677.7       47924.4       29173.3      
4850          211803        198020        179250        160482        141716        122952        104191        85433.1       66677.8       47924.5       29173.4      
4900          211803        198020        179251        160483        141717        122953        104192        85434.4       66678.6       47925.5       29173.6      
4950          211803        198020        179251        160483        141717        122954        104193        85434.5       66678.7       47925.5       29173.6      
5000          211803        198020        179251        160483        141717        122954        104193        85434.6       66678.8       47925.6       29173.6      
