# Probe 0 (0.0015 0.0015 0)
# Probe 1 (0.0015 0.0015 0.002)
# Probe 2 (0.0015 0.0015 0.004)
# Probe 3 (0.0015 0.0015 0.006)
# Probe 4 (0.0015 0.0015 0.008)
# Probe 5 (0.0015 0.0015 0.01)
# Probe 6 (0.0015 0.0015 0.012)
# Probe 7 (0.0015 0.0015 0.014)
# Probe 8 (0.0015 0.0015 0.016)
# Probe 9 (0.0015 0.0015 0.018)
# Probe 10 (0.0015 0.0015 0.02)
# Time        0             1             2             3             4             5             6             7             8             9             10           
50            (-0.00826249 -0.00826041 -5.30532e+07) (-0.00878259 -0.00878259 -3.27856e+07) (-0.00407799 -0.00407796 -1.38889e+07) (-0.00249211 -0.00249099 -5.33329e+06) (-0.00193554 -0.0019365 -1.99233e+06) (-0.00174387 -0.00174465 -824106) (-0.00160752 -0.00160935 -591073) (-0.00138959 -0.00139024 -990485) (-0.000877805 -0.000879461 -2.31408e+06) (0.000285605 0.00028413 -5.44582e+06) (-0.0126621 -0.0126623 -1.18007e+07)
100           (-0.0353442 -0.0353375 -3.99244e+07) (0.0386081 0.0386084 -3.27947e+07) (0.0224574 0.0224564 -1.99944e+07) (0.00974493 0.00975229 -1.00806e+07) (0.00355061 0.00354879 -4.64116e+06) (0.000662977 0.000672309 -2.2054e+06) (-0.00107562 -0.00107211 -1.4584e+06) (-0.00285229 -0.00284631 -1.81004e+06) (-0.0050877 -0.00508211 -3.21558e+06) (-0.00718879 -0.00718652 -5.87763e+06) (-0.061649 -0.0616461 -9.74698e+06)
150           (0.0262942 0.0262941 -3.30304e+07) (0.0102858 0.010286 -2.94591e+07) (0.00286746 0.00286769 -2.17722e+07) (-0.00122466 -0.00122432 -1.34993e+07) (-0.0015114 -0.00151092 -7.41349e+06) (-0.00120361 -0.00120315 -4.01311e+06) (-0.0011543 -0.00115382 -2.64232e+06) (-0.00137336 -0.00137293 -2.68928e+06) (-0.00157636 -0.00157602 -3.84177e+06) (-0.00117695 -0.00117671 -5.91788e+06) (0.00100146 0.00100154 -8.50388e+06)
200           (0.0352054 0.0352064 -2.87948e+07) (0.0501149 0.050116 -2.65762e+07) (0.0504086 0.0504099 -2.15843e+07) (0.0350958 0.0350977 -1.53492e+07) (0.0189314 0.018933 -9.70906e+06) (0.00745371 0.00745595 -5.88251e+06) (-6.92155e-05 -6.79925e-05 -3.97077e+06) (-0.00516862 -0.00516688 -3.59003e+06) (-0.00828277 -0.00828205 -4.34443e+06) (-0.00805345 -0.00805242 -5.87601e+06) (0.0472353 0.0472355 -7.68114e+06)
250           (0.041159 0.04116 -2.58801e+07) (0.00444211 0.00443971 -2.43434e+07) (-0.00378173 -0.00378326 -2.0829e+07) (-0.0111621 -0.0111607 -1.61461e+07) (-0.0132812 -0.013281 -1.13523e+07) (-0.010591 -0.0105909 -7.56163e+06) (-0.00681614 -0.00681522 -5.30199e+06) (-0.00367794 -0.00367746 -4.49785e+06) (-0.00116019 -0.00116009 -4.81833e+06) (0.00113256 0.0011321 -5.86383e+06) (0.00189479 0.00189493 -7.12997e+06)
300           (0.027823 0.0278236 -2.37349e+07) (-0.000591055 -0.000592824 -2.25997e+07) (-0.00370336 -0.0037044 -1.99831e+07) (-0.00617758 -0.00617633 -1.63835e+07) (-0.00698316 -0.00698296 -1.24264e+07) (-0.00585395 -0.00585377 -8.93485e+06) (-0.00381895 -0.00381834 -6.53349e+06) (-0.00188688 -0.00188649 -5.38492e+06) (-0.000389454 -0.000389385 -5.29795e+06) (0.00066073 0.000660427 -5.91578e+06) (0.00125073 0.00125084 -6.77409e+06)
350           (-0.0678972 -0.0679023 -2.2085e+07) (-0.0152733 -0.0152734 -2.12119e+07) (-0.0138666 -0.0138684 -1.91856e+07) (-0.00945757 -0.00946524 -1.63488e+07) (-0.00348752 -0.00349219 -1.309e+07) (0.00148916 0.00148381 -9.99108e+06) (0.00391407 0.00391252 -7.60655e+06) (0.00421679 0.00421581 -6.2217e+06) (0.0032122 0.00321299 -5.78761e+06) (0.00129722 0.00129806 -6.03564e+06) (0.00409497 0.00409498 -6.56756e+06)
400           (-0.0345562 -0.0345556 -2.07772e+07) (-0.0257499 -0.025751 -2.00839e+07) (-0.0139293 -0.0139309 -1.84706e+07) (-0.000440741 -0.000439718 -1.61846e+07) (0.0137408 0.0137408 -1.34832e+07) (0.0235713 0.0235716 -1.0774e+07) (0.0253746 0.025375 -8.50292e+06) (0.0203396 0.0203403 -6.98489e+06) (0.0121636 0.0121631 -6.2787e+06) (0.00390436 0.00390462 -6.216e+06) (-0.00193292 -0.00193303 -6.47975e+06)
450           (-0.0270849 -0.0270784 -1.97159e+07) (-0.161899 -0.161892 -1.91527e+07) (-0.0803418 -0.0803324 -1.78397e+07) (0.00706747 0.00708126 -1.59629e+07) (0.0958877 0.0958988 -1.36999e+07) (0.162078 0.162093 -1.13413e+07) (0.182644 0.182651 -9.23055e+06) (0.155414 0.155425 -7.66227e+06) (0.100373 0.100376 -6.75918e+06) (0.0409826 0.0409875 -6.44429e+06) (-0.00319043 -0.00319068 -6.4871e+06)
500           (-0.0806746 -0.0806771 -1.88387e+07) (-0.0968641 -0.0968683 -1.83725e+07) (-0.0795067 -0.0795126 -1.72863e+07) (-0.0494235 -0.0494297 -1.57192e+07) (-0.010741 -0.0107493 -1.38024e+07) (0.0275241 0.0275192 -1.17457e+07) (0.0534689 0.0534605 -9.81003e+06) (0.0591978 0.0591952 -8.25078e+06) (0.0469302 0.0469244 -7.21801e+06) (0.0250884 0.0250882 -6.70757e+06) (-0.000608025 -0.000610644 -6.57067e+06)
550           (0.252783 0.252775 -1.81025e+07) (0.0166294 0.0166224 -1.77112e+07) (0.0131933 0.013183 -1.67979e+07) (0.00774878 0.00773475 -1.54723e+07) (0.00131808 0.00130673 -1.38311e+07) (-0.00489636 -0.0049126 -1.20298e+07) (-0.00907629 -0.00908485 -1.02665e+07) (-0.0101713 -0.010185 -8.75483e+06) (-0.00837414 -0.00837816 -7.64816e+06) (-0.00504027 -0.00504832 -6.99351e+06) (-0.0016776 -0.00167756 -6.71405e+06)
600           (0.218611 0.218609 -1.74767e+07) (0.012885 0.0128803 -1.7144e+07) (0.0104934 0.0104869 -1.63661e+07) (0.00681824 0.00681193 -1.52304e+07) (0.00208857 0.00207877 -1.38124e+07) (-0.00273287 -0.0027388 -1.22249e+07) (-0.00676017 -0.00677032 -1.06246e+07) (-0.00871746 -0.00872135 -9.1819e+06) (-0.00826348 -0.00827109 -8.04592e+06) (-0.00593952 -0.00594078 -7.29142e+06) (-0.000505455 -0.000508703 -6.90343e+06)
650           (0.182942 0.182936 -1.69388e+07) (0.0114462 0.0114413 -1.66525e+07) (0.00955555 0.00954826 -1.59818e+07) (0.00647224 0.00646176 -1.49998e+07) (0.0026529 0.00264443 -1.37616e+07) (-0.00153381 -0.00154656 -1.23566e+07) (-0.00512021 -0.00512731 -1.0903e+07) (-0.00736877 -0.00738025 -9.54338e+06) (-0.00764303 -0.00764717 -8.40887e+06) (-0.0062469 -0.00625386 -7.5939e+06) (-0.000633859 -0.000634319 -7.12633e+06)
700           (0.163378 0.163377 -1.64716e+07) (0.0154102 0.0154059 -1.62226e+07) (0.0133107 0.0133049 -1.56391e+07) (0.00986839 0.00986274 -1.47809e+07) (0.00518155 0.00517248 -1.36924e+07) (6.01949e-05 5.47652e-05 -1.24403e+07) (-0.00484869 -0.00485834 -1.1121e+07) (-0.00835612 -0.00836001 -9.8476e+06) (-0.00979197 -0.00979937 -8.73898e+06) (-0.00902963 -0.0090311 -7.89333e+06) (-0.000655127 -0.000658263 -7.37269e+06)
750           (0.135247 0.135242 -1.60622e+07) (0.0190779 0.0190739 -1.58438e+07) (0.0168326 0.0168266 -1.53313e+07) (0.0128039 0.0127954 -1.45758e+07) (0.00753026 0.00752341 -1.36108e+07) (0.00135393 0.0013433 -1.24908e+07) (-0.00462944 -0.00463541 -1.12906e+07) (-0.00951289 -0.00952255 -1.01053e+07) (-0.012193 -0.0121966 -9.03703e+06) (-0.0124178 -0.0124237 -8.18579e+06) (-0.00124355 -0.00124404 -7.63342e+06)
800           (0.244086 0.244086 -1.57006e+07) (-0.00422419 -0.00422457 -1.55076e+07) (-0.00450803 -0.00450841 -1.5054e+07) (-0.00437272 -0.00437355 -1.43836e+07) (-0.00382101 -0.00382156 -1.35236e+07) (-0.00290618 -0.00290689 -1.25164e+07) (-0.00172104 -0.00172157 -1.14235e+07) (-0.000455937 -0.000456475 -1.0324e+07) (0.000692285 0.000691955 -9.30637e+06) (0.00153551 0.00153525 -8.4672e+06) (0.00135771 0.00135764 -7.90133e+06)
850           (-0.0628362 -0.0628368 -1.53793e+07) (-0.188783 -0.188784 -1.52076e+07) (-0.173825 -0.173826 -1.48017e+07) (-0.146127 -0.146128 -1.4205e+07) (-0.10634 -0.106341 -1.34335e+07) (-0.055081 -0.055082 -1.25249e+07) (0.000673211 0.000672674 -1.15288e+07) (0.0533084 0.0533078 -1.05109e+07) (0.0965131 0.0965129 -9.55095e+06) (0.11883 0.11883 -8.73519e+06) (-0.0521607 -0.0521607 -8.16938e+06)
900           (-0.028016 -0.0280163 -1.50918e+07) (-0.166557 -0.166557 -1.49376e+07) (-0.155413 -0.155413 -1.45742e+07) (-0.135244 -0.135244 -1.40384e+07) (-0.102851 -0.102852 -1.33437e+07) (-0.0609403 -0.0609406 -1.25209e+07) (-0.0129679 -0.012968 -1.16116e+07) (0.0354833 0.0354831 -1.06715e+07) (0.0784989 0.0784989 -9.77088e+06) (0.107012 0.107012 -8.98992e+06) (-0.0547254 -0.0547254 -8.43492e+06)
950           (-0.00795586 -0.0079569 -1.48332e+07) (-0.152771 -0.152771 -1.46942e+07) (-0.144768 -0.144769 -1.43671e+07) (-0.1288 -0.128801 -1.38838e+07) (-0.101776 -0.101776 -1.32558e+07) (-0.0655671 -0.065568 -1.25085e+07) (-0.0227509 -0.0227515 -1.16775e+07) (0.0226319 0.0226313 -1.08106e+07) (0.0656093 0.0656091 -9.96996e+06) (0.0982426 0.0982424 -9.22973e+06) (-0.0557649 -0.0557649 -8.69358e+06)
1000          (0.0015676 0.00156736 -1.45995e+07) (-0.136339 -0.136339 -1.44738e+07) (-0.130346 -0.130346 -1.41781e+07) (-0.117479 -0.117479 -1.37406e+07) (-0.0949835 -0.0949836 -1.31709e+07) (-0.0640298 -0.06403 -1.24906e+07) (-0.0265402 -0.0265404 -1.17305e+07) (0.014522 0.0145218 -1.0932e+07) (0.0552811 0.0552811 -1.01506e+07) (0.08866 0.0886599 -9.4544e+06) (-0.0552949 -0.0552949 -8.94263e+06)
1050          (0.00894399 0.00894305 -1.43876e+07) (-0.128635 -0.128636 -1.42736e+07) (-0.124197 -0.124198 -1.40053e+07) (-0.113407 -0.113408 -1.3608e+07) (-0.0936667 -0.0936669 -1.30898e+07) (-0.0657162 -0.0657169 -1.24694e+07) (-0.0310394 -0.0310399 -1.17736e+07) (0.00802142 0.00802087 -1.10389e+07) (0.0483098 0.0483096 -1.0315e+07) (0.0831995 0.0831993 -9.6641e+06) (-0.0550697 -0.0550697 -9.1802e+06)
1100          (0.0108654 0.0108652 -1.4195e+07) (-0.116724 -0.116724 -1.40913e+07) (-0.113126 -0.113126 -1.38471e+07) (-0.103971 -0.103971 -1.34854e+07) (-0.0868094 -0.0868095 -1.3013e+07) (-0.0621137 -0.0621139 -1.24465e+07) (-0.0309918 -0.0309919 -1.18092e+07) (0.00472821 0.00472806 -1.11337e+07) (0.0425325 0.0425325 -1.04648e+07) (0.0763906 0.0763905 -9.85923e+06) (-0.0534172 -0.0534172 -9.40507e+06)
1150          (0.0140139 0.014013 -1.40193e+07) (-0.110531 -0.110532 -1.39248e+07) (-0.107821 -0.107822 -1.37021e+07) (-0.0999453 -0.099946 -1.33722e+07) (-0.0845297 -0.0845299 -1.29408e+07) (-0.0618704 -0.061871 -1.24228e+07) (-0.0328126 -0.032813 -1.1839e+07) (0.00114758 0.00114717 -1.12184e+07) (0.0378887 0.0378885 -1.06016e+07) (0.071799 0.0717988 -1.00404e+07) (-0.0519423 -0.0519423 -9.61662e+06)
1200          (0.0126227 0.0126225 -1.38588e+07) (-0.0991244 -0.0991245 -1.37725e+07) (-0.0966914 -0.0966916 -1.3569e+07) (-0.089791 -0.0897912 -1.32676e+07) (-0.076198 -0.0761981 -1.28732e+07) (-0.0560996 -0.0560998 -1.23992e+07) (-0.030138 -0.0301381 -1.18642e+07) (0.000496946 0.000496842 -1.12944e+07) (0.034051 0.034051 -1.07268e+07) (0.0654997 0.0654997 -1.02082e+07) (-0.0489791 -0.0489791 -9.81463e+06)
1250          (0.0147002 0.0146994 -1.3712e+07) (-0.0944888 -0.0944896 -1.3633e+07) (-0.0926995 -0.0927 -1.34469e+07) (-0.0866798 -0.0866805 -1.31711e+07) (-0.0742794 -0.0742799 -1.28103e+07) (-0.0556008 -0.0556016 -1.23762e+07) (-0.0311455 -0.0311458 -1.1886e+07) (-0.0019143 -0.00191473 -1.13631e+07) (0.0305361 0.0305359 -1.08414e+07) (0.061541 0.0615408 -1.03633e+07) (-0.0468612 -0.0468612 -9.99919e+06)
1300          (0.011811 0.0118108 -1.35775e+07) (-0.0836046 -0.0836048 -1.35052e+07) (-0.0817928 -0.0817929 -1.33347e+07) (-0.0763575 -0.0763577 -1.30822e+07) (-0.0653285 -0.0653286 -1.27518e+07) (-0.0487759 -0.0487761 -1.23542e+07) (-0.0270904 -0.0270904 -1.19049e+07) (-0.00109536 -0.00109548 -1.14254e+07) (0.0278866 0.0278865 -1.09463e+07) (0.0557091 0.055709 -1.05066e+07) (-0.0432745 -0.0432745 -1.01706e+07)
1350          (-0.00756215 -0.00757189 -1.3455e+07) (0.0215654 0.0215565 -1.33869e+07) (0.0261087 0.0261033 -1.32323e+07) (0.0290198 0.0290167 -1.3e+07) (0.0300001 0.029997 -1.26976e+07) (0.0288164 0.0288086 -1.23332e+07) (0.025311 0.025308 -1.19213e+07) (0.0194747 0.0194713 -1.14824e+07) (0.0114705 0.0114679 -1.10417e+07) (0.00158426 0.00158182 -1.06402e+07) (0.00285276 0.00285251 -1.03292e+07)
1400          (-0.0167394 -0.0167672 -1.33416e+07) (-0.00329042 -0.00331585 -1.32799e+07) (0.00187149 0.00185678 -1.31378e+07) (0.00838492 0.00837745 -1.29243e+07) (0.0146629 0.0146541 -1.26476e+07) (0.0198085 0.0197872 -1.23134e+07) (0.0237739 0.023766 -1.19363e+07) (0.0267179 0.0267096 -1.15336e+07) (0.0275388 0.0275325 -1.11304e+07) (0.026588 0.0265813 -1.07616e+07) (0.00961944 0.00961828 -1.04762e+07)
1450          (-0.0105788 -0.0105979 -1.3238e+07) (0.00629961 0.00628234 -1.31813e+07) (0.0108144 0.0108046 -1.30502e+07) (0.0148216 0.0148163 -1.28556e+07) (0.0179804 0.0179742 -1.26012e+07) (0.0198065 0.0197922 -1.22954e+07) (0.0203807 0.0203753 -1.19492e+07) (0.0192659 0.0192603 -1.15811e+07) (0.0164648 0.0164612 -1.12113e+07) (0.0119965 0.0119921 -1.08735e+07) (0.00593404 0.00593323 -1.06117e+07)
1500          (0.0733113 0.0733099 -1.31425e+07) (0.0398631 0.0398619 -1.30909e+07) (0.0379399 0.0379392 -1.29705e+07) (0.0320236 0.0320232 -1.27919e+07) (0.0239978 0.0239973 -1.25587e+07) (0.0121661 0.0121653 -1.22782e+07) (-0.000231898 -0.000232193 -1.19619e+07) (-0.0152137 -0.015214 -1.16239e+07) (-0.0298409 -0.0298411 -1.12862e+07) (-0.0487876 -0.0487878 -1.09758e+07) (-0.00208569 -0.00208573 -1.07366e+07)
1550          (-0.0116936 -0.0117079 -1.30552e+07) (-0.012542 -0.0125547 -1.30078e+07) (-0.00891103 -0.00891773 -1.28971e+07) (-0.00481826 -0.00482192 -1.27333e+07) (5.20417e-07 -3.40006e-06 -1.25199e+07) (0.00513386 0.00512418 -1.22624e+07) (0.0101949 0.0101912 -1.19729e+07) (0.0154579 0.0154541 -1.16632e+07) (0.0198366 0.0198338 -1.13548e+07) (0.0235155 0.0235119 -1.10702e+07) (0.0113136 0.0113129 -1.08516e+07)
1600          (-0.00837965 -0.00839551 -1.2975e+07) (0.00400104 0.00398712 -1.29312e+07) (0.00749224 0.00748498 -1.28301e+07) (0.0106441 0.0106396 -1.26797e+07) (0.0131453 0.0131408 -1.24836e+07) (0.0147969 0.0147871 -1.22483e+07) (0.0154612 0.0154574 -1.19826e+07) (0.0148407 0.0148365 -1.16999e+07) (0.0130836 0.0130805 -1.14167e+07) (0.00990358 0.00989989 -1.11578e+07) (0.00484047 0.00483996 -1.09568e+07)
1650          (0.0523209 0.0523197 -1.29013e+07) (0.0292731 0.0292721 -1.28612e+07) (0.0280082 0.0280077 -1.27682e+07) (0.0235522 0.023552 -1.26304e+07) (0.017466 0.0174657 -1.24509e+07) (0.0091915 0.00919102 -1.22351e+07) (0.000320455 0.000320265 -1.19921e+07) (-0.0108851 -0.0108853 -1.1733e+07) (-0.0212638 -0.0212639 -1.14745e+07) (-0.0353274 -0.0353276 -1.1237e+07) (-0.00138097 -0.00138098 -1.10537e+07)
1700          (0.0923848 0.0923748 -1.28334e+07) (0.00158051 0.00157149 -1.27972e+07) (-0.0343131 -0.0343184 -1.27116e+07) (-0.0683671 -0.0683698 -1.25851e+07) (-0.100082 -0.100084 -1.24207e+07) (-0.126799 -0.126806 -1.22229e+07) (-0.144984 -0.144987 -1.20007e+07) (-0.154757 -0.154759 -1.17632e+07) (-0.152828 -0.152829 -1.15275e+07) (-0.139712 -0.139714 -1.13098e+07) (-0.0746431 -0.0746434 -1.11427e+07)
1750          (-0.0145973 -0.0145703 -1.27719e+07) (-0.0713712 -0.0713448 -1.27374e+07) (-0.0696222 -0.069603 -1.26596e+07) (-0.0607419 -0.0607303 -1.2544e+07) (-0.0499188 -0.0499107 -1.23929e+07) (-0.0359903 -0.0359719 -1.2212e+07) (-0.0136826 -0.0136744 -1.20082e+07) (0.00729777 0.00730391 -1.17917e+07) (0.0351254 0.0351301 -1.15752e+07) (0.0594022 0.0594079 -1.13775e+07) (0.0111023 0.0111026 -1.12239e+07)
1800          (0.0809344 0.0809452 -1.27136e+07) (-0.00537459 -0.00536439 -1.26853e+07) (-0.0290547 -0.0290478 -1.26117e+07) (-0.0564391 -0.0564343 -1.25054e+07) (-0.0849355 -0.0849319 -1.23677e+07) (-0.105892 -0.105885 -1.22024e+07) (-0.120877 -0.120874 -1.2015e+07) (-0.128041 -0.128038 -1.18177e+07) (-0.126753 -0.126752 -1.16197e+07) (-0.11483 -0.114828 -1.14385e+07) (-0.0623932 -0.0623932 -1.12987e+07)
1850          (-0.0171169 -0.0171062 -1.26635e+07) (-0.0696476 -0.0696366 -1.26325e+07) (-0.0629963 -0.0629889 -1.25681e+07) (-0.0405357 -0.0405329 -1.24717e+07) (-0.0419513 -0.0419479 -1.23446e+07) (-0.022553 -0.0225455 -1.21923e+07) (-0.00620438 -0.00620063 -1.20224e+07) (0.0154196 0.0154213 -1.18409e+07) (0.0360829 0.0360839 -1.16602e+07) (0.0573197 0.0573218 -1.1495e+07) (0.0128713 0.0128711 -1.13669e+07)
1900          (-0.0197751 -0.0197931 -1.26136e+07) (-0.0480277 -0.0480458 -1.25896e+07) (-0.0500412 -0.0500531 -1.25289e+07) (-0.0559012 -0.055907 -1.24387e+07) (-0.0358408 -0.0358476 -1.23228e+07) (-0.0232676 -0.0232808 -1.2185e+07) (-0.00421463 -0.00422159 -1.2028e+07) (0.0126626 0.0126596 -1.18629e+07) (0.0361854 0.0361841 -1.16971e+07) (0.0553568 0.0553531 -1.15468e+07) (0.0111388 0.0111397 -1.14294e+07)
1950          (0.0551006 0.0551077 -1.25713e+07) (0.00315723 0.00316427 -1.25461e+07) (-0.0220679 -0.0220637 -1.24913e+07) (-0.0484397 -0.0484378 -1.241e+07) (-0.0669006 -0.066898 -1.23046e+07) (-0.0812703 -0.0812652 -1.2176e+07) (-0.0925515 -0.0925488 -1.20345e+07) (-0.0974726 -0.0974715 -1.18821e+07) (-0.0952555 -0.0952549 -1.17321e+07) (-0.085256 -0.0852547 -1.1593e+07) (-0.0479126 -0.0479129 -1.1487e+07)
2000          (-0.0126727 -0.0126971 -1.25297e+07) (-0.0385851 -0.0386089 -1.25093e+07) (-0.0415358 -0.0415493 -1.24588e+07) (-0.0457236 -0.0457285 -1.23829e+07) (-0.0347292 -0.0347371 -1.22856e+07) (-0.0209295 -0.0209459 -1.21702e+07) (-0.00735918 -0.00736664 -1.2039e+07) (0.00671426 0.00671107 -1.19009e+07) (0.0258698 0.025867 -1.17624e+07) (0.0426448 0.0426402 -1.16372e+07) (0.00776641 0.00776844 -1.15391e+07)
2050          (0.0401924 0.0402182 -1.24944e+07) (-0.00132311 -0.00129775 -1.24726e+07) (-0.0214421 -0.0214277 -1.24267e+07) (-0.0446531 -0.0446487 -1.23592e+07) (-0.0562469 -0.056239 -1.22703e+07) (-0.0673388 -0.0673218 -1.21632e+07) (-0.073026 -0.0730183 -1.2044e+07) (-0.0776062 -0.0776028 -1.19174e+07) (-0.0720978 -0.0720949 -1.17914e+07) (-0.0633569 -0.0633523 -1.16762e+07) (-0.037594 -0.0375962 -1.15872e+07)
2100          (-0.000834749 -0.000856988 -1.24591e+07) (0.000675605 0.000653679 -1.24422e+07) (0.00123901 0.00122662 -1.23997e+07) (0.00170367 0.00170003 -1.23363e+07) (0.00211595 0.0021093 -1.22545e+07) (0.00230416 0.00228992 -1.21581e+07) (0.00235388 0.00234758 -1.20483e+07) (0.00206821 0.00206541 -1.19328e+07) (0.00154715 0.00154469 -1.18174e+07) (0.000749652 0.000745758 -1.17127e+07) (0.00185094 0.00185268 -1.1631e+07)
2150          (-0.0931241 -0.0931207 -1.24294e+07) (0.0562343 0.056237 -1.24117e+07) (0.0719363 0.0719381 -1.23728e+07) (0.0757866 0.0757871 -1.2316e+07) (0.0814799 0.0814808 -1.22419e+07) (0.0802701 0.0802718 -1.21522e+07) (0.0736652 0.073666 -1.20527e+07) (0.0576153 0.0576156 -1.19466e+07) (0.0382252 0.0382254 -1.18418e+07) (0.00802445 0.00802477 -1.17452e+07) (0.0467955 0.0467953 -1.16712e+07)
2200          (0.0382138 0.0382377 -1.23999e+07) (-0.00909856 -0.00907493 -1.23859e+07) (-0.020406 -0.0203927 -1.23504e+07) (-0.0275064 -0.027503 -1.22971e+07) (-0.0402077 -0.0402007 -1.22285e+07) (-0.0487634 -0.0487476 -1.2148e+07) (-0.0552359 -0.055229 -1.20561e+07) (-0.0552106 -0.0552073 -1.19598e+07) (-0.0541854 -0.0541828 -1.18632e+07) (-0.0472388 -0.0472345 -1.17761e+07) (-0.0268941 -0.0268961 -1.17078e+07)
2250          (-0.0648371 -0.0648393 -1.23752e+07) (0.0437123 0.0437101 -1.23603e+07) (0.0553946 0.0553933 -1.23277e+07) (0.0573683 0.0573679 -1.22801e+07) (0.0614183 0.0614174 -1.22181e+07) (0.0604491 0.0604479 -1.2143e+07) (0.0552703 0.05527 -1.20599e+07) (0.0427069 0.0427068 -1.19712e+07) (0.027984 0.0279838 -1.18838e+07) (0.00457652 0.00457632 -1.18032e+07) (0.0355846 0.0355847 -1.17415e+07)
2300          (0.0283193 0.0283463 -1.23503e+07) (-0.0100873 -0.01006 -1.23387e+07) (-0.0181988 -0.018183 -1.2309e+07) (-0.0235383 -0.0235343 -1.22643e+07) (-0.0321214 -0.032113 -1.22068e+07) (-0.037804 -0.0377865 -1.21396e+07) (-0.041536 -0.0415282 -1.20628e+07) (-0.0406017 -0.0405979 -1.19823e+07) (-0.0385044 -0.0385016 -1.19016e+07) (-0.0321615 -0.0321565 -1.1829e+07) (-0.0196422 -0.0196443 -1.17721e+07)
2350          (-0.07867 -0.0786732 -1.23297e+07) (0.0407904 0.0407897 -1.23172e+07) (0.0516459 0.0516479 -1.22898e+07) (0.0538509 0.0538509 -1.22501e+07) (0.0567774 0.056778 -1.21983e+07) (0.0574965 0.057497 -1.21354e+07) (0.0527581 0.052759 -1.20659e+07) (0.0429641 0.042963 -1.19918e+07) (0.0300756 0.0300752 -1.19189e+07) (0.0102018 0.0102021 -1.18516e+07) (0.0386098 0.0386105 -1.18002e+07)
2400          (-0.068097 -0.0680967 -1.23088e+07) (-0.00744731 -0.0074472 -1.22992e+07) (-0.00509256 -0.00509266 -1.22743e+07) (-0.00669083 -0.006691 -1.22369e+07) (-0.00764383 -0.00764387 -1.21889e+07) (-0.00789091 -0.007891 -1.21325e+07) (-0.00693072 -0.00693074 -1.20685e+07) (-0.00621976 -0.00621973 -1.20011e+07) (-0.00467289 -0.00467281 -1.1934e+07) (-0.00491681 -0.00491684 -1.18731e+07) (-0.000770113 -0.000770143 -1.18258e+07)
2450          (-0.0636475 -0.0636474 -1.22917e+07) (-0.00318238 -0.00318225 -1.22811e+07) (-0.00492089 -0.00492082 -1.22583e+07) (-0.00445404 -0.00445404 -1.22249e+07) (-0.00399561 -0.00399561 -1.21817e+07) (-0.00454589 -0.00454577 -1.21291e+07) (-0.00443194 -0.00443192 -1.20711e+07) (-0.00400919 -0.00400917 -1.20092e+07) (-0.00311457 -0.00311449 -1.19483e+07) (-0.00421643 -0.00421646 -1.18922e+07) (0.00104023 0.0010402 -1.18493e+07)
2500          (0.0217461 0.0217451 -1.22739e+07) (-0.00791027 -0.00791249 -1.22663e+07) (-0.013603 -0.0136122 -1.22454e+07) (-0.0160854 -0.0160916 -1.2214e+07) (-0.0228485 -0.0228469 -1.21736e+07) (-0.0269265 -0.0269376 -1.21268e+07) (-0.0302903 -0.0302911 -1.20731e+07) (-0.0294871 -0.0294875 -1.20171e+07) (-0.0284794 -0.0284758 -1.19608e+07) (-0.0241717 -0.0241738 -1.19103e+07) (-0.0146065 -0.0146059 -1.18706e+07)
2550          (-0.0503836 -0.0503837 -1.226e+07) (0.00171824 0.00171765 -1.22509e+07) (-0.00201294 -0.00201349 -1.22317e+07) (-0.00354022 -0.00354054 -1.2204e+07) (-0.00462422 -0.00462434 -1.21679e+07) (-0.00426024 -0.00426027 -1.21238e+07) (-0.00541801 -0.00541811 -1.20754e+07) (-0.00455122 -0.00455115 -1.20237e+07) (-0.00398433 -0.00398417 -1.19729e+07) (-0.00434422 -0.00434422 -1.1926e+07) (0.000927995 0.000927995 -1.18903e+07)
2600          (-0.0498621 -0.0498627 -1.22449e+07) (-0.00476924 -0.00476914 -1.22386e+07) (-0.00249977 -0.00249935 -1.22211e+07) (-0.00367695 -0.00367647 -1.21948e+07) (-0.00535318 -0.00535289 -1.21611e+07) (-0.00782709 -0.00782718 -1.21219e+07) (-0.00732201 -0.00732241 -1.20771e+07) (-0.00777127 -0.00777198 -1.20302e+07) (-0.00663829 -0.00663868 -1.19834e+07) (-0.00666279 -0.00666312 -1.1941e+07) (-0.0022408 -0.0022408 -1.19081e+07)
2650          (-0.0403594 -0.0403596 -1.22335e+07) (-0.00149113 -0.00149127 -1.22254e+07) (-0.00323141 -0.00323141 -1.22095e+07) (-0.00297852 -0.00297855 -1.21866e+07) (-0.00271219 -0.00271215 -1.21564e+07) (-0.00259516 -0.00259515 -1.21194e+07) (-0.00277925 -0.0027793 -1.2079e+07) (-0.00246202 -0.00246209 -1.20358e+07) (-0.0020734 -0.00207346 -1.19934e+07) (-0.0029658 -0.00296588 -1.19544e+07) (0.000316366 0.000316383 -1.19245e+07)
2700          (-0.0468656 -0.0468659 -1.22206e+07) (-0.00536647 -0.00536685 -1.22155e+07) (-0.00310144 -0.00310162 -1.22009e+07) (-0.00439544 -0.00439523 -1.21788e+07) (-0.00542177 -0.00542169 -1.21506e+07) (-0.00570329 -0.00570337 -1.21179e+07) (-0.00522931 -0.00522957 -1.20805e+07) (-0.00478442 -0.00478489 -1.20413e+07) (-0.003958 -0.00395831 -1.20022e+07) (-0.00386285 -0.00386299 -1.19669e+07) (-0.0020882 -0.00208824 -1.19394e+07)
2750          (-0.0392144 -0.0392142 -1.22111e+07) (-0.00090563 -0.000905491 -1.22045e+07) (-0.00234403 -0.00234399 -1.21912e+07) (-0.00145953 -0.00145939 -1.21718e+07) (-0.000819761 -0.000819744 -1.21467e+07) (-0.00116848 -0.00116842 -1.21158e+07) (-0.00111654 -0.00111652 -1.2082e+07) (-0.000987717 -0.000987769 -1.2046e+07) (-0.000679986 -0.000679986 -1.20106e+07) (-0.00165912 -0.00165913 -1.1978e+07) (0.000321418 0.000321384 -1.19531e+07)
2800          (0.563946 0.563946 -1.22003e+07) (0.00379773 0.00379734 -1.21962e+07) (0.0180268 0.0180264 -1.2184e+07) (0.0169043 0.016904 -1.21654e+07) (0.0229539 0.0229536 -1.21418e+07) (0.0266984 0.0266984 -1.21145e+07) (0.031547 0.031547 -1.20833e+07) (0.0292996 0.0292996 -1.20506e+07) (0.0283471 0.0283471 -1.20179e+07) (0.0197467 0.0197466 -1.19884e+07) (0.0761376 0.0761376 -1.19655e+07)
2850          (0.326402 0.326402 -1.21925e+07) (-0.00410401 -0.0041039 -1.21869e+07) (-0.024127 -0.0241269 -1.21757e+07) (-0.025867 -0.025867 -1.21596e+07) (-0.0242775 -0.0242774 -1.21387e+07) (-0.0272859 -0.0272858 -1.21128e+07) (-0.0275914 -0.0275914 -1.20846e+07) (-0.0249629 -0.0249627 -1.20544e+07) (-0.020104 -0.0201038 -1.2025e+07) (-0.0168337 -0.0168335 -1.19977e+07) (0.0339123 0.0339124 -1.19769e+07)
2900          (0.0275979 0.0275984 -1.21827e+07) (-0.00711972 -0.0071192 -1.21811e+07) (-0.00998968 -0.00998913 -1.21703e+07) (-0.0152049 -0.0152049 -1.21532e+07) (-0.0165459 -0.0165461 -1.2135e+07) (-0.0132173 -0.013217 -1.21115e+07) (-0.0122148 -0.0122153 -1.20861e+07) (-0.00912801 -0.00912877 -1.20576e+07) (-0.0053114 -0.00531245 -1.20314e+07) (-0.000470917 -0.000471533 -1.20061e+07) (-0.00782455 -0.00782498 -1.19873e+07)
2950          (0.246385 0.246385 -1.2177e+07) (-0.00333358 -0.00333338 -1.21723e+07) (-0.0246333 -0.0246332 -1.21629e+07) (-0.0265915 -0.0265915 -1.21494e+07) (-0.0244026 -0.0244025 -1.21319e+07) (-0.0271031 -0.0271031 -1.21103e+07) (-0.0270894 -0.0270894 -1.20867e+07) (-0.0242849 -0.0242851 -1.20615e+07) (-0.0193501 -0.0193502 -1.20369e+07) (-0.0156954 -0.0156957 -1.20141e+07) (0.0266613 0.0266612 -1.19968e+07)
3000          (0.10901 0.109014 -1.21687e+07) (-0.0329644 -0.0329585 -1.21675e+07) (0.0435468 0.0435552 -1.21584e+07) (0.142498 0.142507 -1.21441e+07) (0.103316 0.103321 -1.21288e+07) (-0.0421668 -0.0421651 -1.21092e+07) (-0.0659402 -0.0659467 -1.20879e+07) (-0.135799 -0.135806 -1.20642e+07) (-0.185493 -0.185503 -1.20423e+07) (-0.241156 -0.241161 -1.20211e+07) (-0.00391377 -0.00391738 -1.20054e+07)
3050          (0.00818508 0.00818606 -1.21646e+07) (-0.00691586 -0.00691464 -1.21594e+07) (-0.0105022 -0.0105009 -1.21517e+07) (-0.0101128 -0.0101117 -1.21419e+07) (-0.0103624 -0.0103617 -1.21258e+07) (-0.0110287 -0.0110284 -1.21085e+07) (-0.0103935 -0.0103943 -1.20878e+07) (-0.00874583 -0.00874701 -1.20681e+07) (-0.00670899 -0.00671067 -1.20463e+07) (-0.00392706 -0.00392816 -1.20281e+07) (-0.00629519 -0.00629596 -1.20132e+07)
3100          (0.00408288 0.00407736 -1.21571e+07) (0.00378773 0.00378114 -1.2156e+07) (-0.00254033 -0.00255105 -1.21487e+07) (-0.00519206 -0.00520389 -1.21365e+07) (-0.00687691 -0.00688413 -1.21236e+07) (-0.00174478 -0.0017478 -1.21073e+07) (-0.00535117 -0.00534343 -1.20895e+07) (-0.00189564 -0.00188656 -1.20697e+07) (-0.00117492 -0.00115952 -1.20513e+07) (0.00228601 0.00229209 -1.20337e+07) (-0.001661 -0.00165513 -1.20206e+07)
3150          (-0.00641015 -0.00642656 -1.21539e+07) (0.052112 0.0520947 -1.21491e+07) (0.00168886 0.00167078 -1.21429e+07) (-0.0319434 -0.0319593 -1.21345e+07) (-0.043149 -0.0431566 -1.21215e+07) (-0.0242978 -0.0243023 -1.21064e+07) (-0.0516253 -0.0516137 -1.20897e+07) (-0.043653 -0.0436396 -1.20726e+07) (-0.0521074 -0.0520859 -1.20549e+07) (-0.0424362 -0.0424238 -1.20394e+07) (-0.0268769 -0.0268652 -1.20271e+07)
3200          (0.294361 0.294362 -1.21476e+07) (0.0155758 0.0155764 -1.21461e+07) (0.0193357 0.0193361 -1.21402e+07) (0.0192664 0.0192666 -1.21304e+07) (0.024549 0.0245493 -1.21193e+07) (0.0318427 0.0318427 -1.21057e+07) (0.0298996 0.0298996 -1.20908e+07) (0.0298857 0.0298855 -1.20744e+07) (0.02471 0.0247099 -1.20588e+07) (0.0178659 0.0178658 -1.20443e+07) (0.0478427 0.0478426 -1.20332e+07)
3250          (-0.0206651 -0.0206658 -1.21451e+07) (0.132496 0.132496 -1.21402e+07) (0.0525821 0.0525839 -1.21359e+07) (-0.0394621 -0.0394606 -1.21284e+07) (-0.0169369 -0.016935 -1.21179e+07) (-0.0230237 -0.0230246 -1.21042e+07) (-0.0438386 -0.043838 -1.20917e+07) (-0.0615067 -0.0615085 -1.2076e+07) (-0.0671287 -0.0671291 -1.20623e+07) (-0.0728248 -0.072827 -1.20484e+07) (-0.00588904 -0.00588889 -1.20387e+07)
3300          (-0.010015 -0.0100015 -1.21392e+07) (0.0153692 0.0153834 -1.21391e+07) (0.0044122 0.00441865 -1.21333e+07) (-0.0114571 -0.011452 -1.21249e+07) (0.00593777 0.00594519 -1.21155e+07) (0.00342944 0.00342842 -1.21049e+07) (0.0077263 0.00772868 -1.20914e+07) (0.00478815 0.00477774 -1.20784e+07) (0.0105229 0.0105218 -1.20648e+07) (0.00919114 0.00918282 -1.20531e+07) (0.00361958 0.00362109 -1.20436e+07)
3350          (-0.00335464 -0.0033553 -1.2137e+07) (0.00103938 0.00103896 -1.2134e+07) (-0.0179609 -0.0179613 -1.21295e+07) (-0.0155127 -0.0155131 -1.21232e+07) (-0.0145539 -0.0145541 -1.21146e+07) (-0.017124 -0.017124 -1.21036e+07) (-0.0185243 -0.0185242 -1.20923e+07) (-0.0161848 -0.0161848 -1.20798e+07) (-0.0138514 -0.0138513 -1.20679e+07) (-0.0108751 -0.0108751 -1.20567e+07) (0.00773201 0.00773208 -1.20483e+07)
3400          (0.0562264 0.0562249 -1.21325e+07) (-0.102193 -0.102195 -1.21325e+07) (0.00939603 0.0093937 -1.21276e+07) (0.0762711 0.0762685 -1.212e+07) (0.0184143 0.018413 -1.21132e+07) (-0.0378704 -0.0378711 -1.21032e+07) (-0.0282713 -0.0282708 -1.20929e+07) (-0.0566072 -0.056607 -1.20809e+07) (-0.0726992 -0.0726982 -1.20706e+07) (-0.0883169 -0.0883169 -1.20599e+07) (-9.82027e-05 -9.74481e-05 -1.20524e+07)
3450          (-0.017942 -0.0179481 -1.21314e+07) (0.053164 0.0531556 -1.21272e+07) (0.00634746 0.00634031 -1.2125e+07) (-0.016505 -0.0165105 -1.21195e+07) (-0.0155051 -0.0155111 -1.21116e+07) (-0.0073205 -0.00732196 -1.21022e+07) (-0.0303292 -0.030333 -1.20935e+07) (-0.0251808 -0.025177 -1.20821e+07) (-0.0339342 -0.0339348 -1.20726e+07) (-0.0316053 -0.0316007 -1.2063e+07) (-0.00285342 -0.00285535 -1.20561e+07)
3500          (0.180074 0.180074 -1.21272e+07) (0.0122452 0.0122455 -1.21265e+07) (0.0176926 0.017693 -1.21227e+07) (0.0272429 0.0272431 -1.2117e+07) (0.0298828 0.0298831 -1.21104e+07) (0.0298131 0.0298132 -1.21026e+07) (0.0289288 0.0289288 -1.20932e+07) (0.0263884 0.0263884 -1.2084e+07) (0.0209374 0.0209374 -1.20746e+07) (0.0127933 0.0127932 -1.20662e+07) (0.0350688 0.0350688 -1.20597e+07)