# Probe 0 (0.0015 0.0015 0)
# Probe 1 (0.0015 0.0015 0.002)
# Probe 2 (0.0015 0.0015 0.004)
# Probe 3 (0.0015 0.0015 0.006)
# Probe 4 (0.0015 0.0015 0.008)
# Probe 5 (0.0015 0.0015 0.01)
# Probe 6 (0.0015 0.0015 0.012)
# Probe 7 (0.0015 0.0015 0.014)
# Probe 8 (0.0015 0.0015 0.016)
# Probe 9 (0.0015 0.0015 0.018)
# Probe 10 (0.0015 0.0015 0.02)
# Time        0             1             2             3             4             5             6             7             8             9             10           
50            (2.57986e+06 -904061 -3.12886e+07) (-2.06209e+06 1.40425e+06 -4.65738e+07) (-636174 136266 -1.42118e+07) (231485 340987 -3.43958e+06) (-124152 -81091.4 -1.54917e+06) (-1492.14 -2070.38 -268698) (-4130.28 479.345 -54571.3) (-7063.62 -3314.34 80839.6) (-3021.04 -4667.2 472001) (-158706 -105824 1.75447e+06) (170386 19455.3 3.24546e+06)
100           (2.35247e+06 -679210 -2.27517e+07) (-888898 1.9349e+06 -5.35594e+07) (-1.04871e+06 167989 -2.41301e+07) (433969 593298 -6.34145e+06) (-237790 -154257 -2.98564e+06) (-3583.56 -2722.46 -551756) (-9449.6 -422.356 -153880) (-8303.42 -824.392 74910.5) (-3550.04 -4917.78 527005) (-165510 -103203 1.88944e+06) (169212 25536.3 3.07279e+06)
150           (1.99266e+06 -549131 -1.83494e+07) (-131571 2.0402e+06 -4.92888e+07) (-1.42222e+06 -1628.95 -3.27953e+07) (722819 867412 -1.02927e+07) (-410405 -265689 -5.18549e+06) (-6314.43 -4077.96 -1.00477e+06) (-17755.1 -2099.88 -323684) (-9327.78 3450.02 51818.7) (-4121.29 -5139.48 582143) (-172439 -100055 2.03523e+06) (167427 32060 2.88061e+06)
200           (1.74255e+06 -474154 -1.56763e+07) (147409 1.90838e+06 -4.40186e+07) (-1.56209e+06 -267739 -3.60914e+07) (1.05379e+06 1.0595e+06 -1.44654e+07) (-643646 -416011 -8.20321e+06) (-9189.97 -6656.06 -1.67772e+06) (-29938.9 -4954.91 -592071) (-9895.14 10196.9 2802.49) (-4701.34 -5292 631116) (-178242 -96034.5 2.17545e+06) (164074 37360.9 2.68497e+06)
250           (1.565e+06 -423660 -1.38361e+07) (339924 1.77183e+06 -3.98551e+07) (-1.53926e+06 -411326 -3.56882e+07) (1.35782e+06 1.13047e+06 -1.75581e+07) (-916510 -590929 -1.18239e+07) (-10646.1 -11374.9 -2.61432e+06) (-46836.3 -9563.47 -993227) (-9711.93 20268.7 -82964.1) (-5260.5 -5339.01 667163) (-182085 -91026.9 2.29681e+06) (158992 40423.5 2.49726e+06)
300           (1.4317e+06 -386593 -1.24748e+07) (481338 1.65981e+06 -3.66216e+07) (-1.47186e+06 -467716 -3.41922e+07) (1.56675e+06 1.13036e+06 -1.89721e+07) (-1.18354e+06 -760544 -1.54475e+07) (-7270.74 -19697.4 -3.82926e+06) (-68937.5 -16808.2 -1.56858e+06) (-8410.27 34666.5 -218875) (-5764 -5248.7 682890) (-183531 -85132.5 2.38976e+06) (152648 41276.3 2.32318e+06)
350           (1.32741e+06 -357846 -1.14191e+07) (588448 1.56789e+06 -3.4046e+07) (-1.40242e+06 -489936 -3.25801e+07) (1.66591e+06 1.10017e+06 -1.92097e+07) (-1.397e+06 -891637 -1.8322e+07) (6943.34 -33788.6 -5.27184e+06) (-95784.5 -27969.2 -2.36354e+06) (-5490.33 54539.9 -421670) (-6184.43 -4994.85 669200) (-182370 -78601.8 2.44715e+06) (145616 40520.4 2.16383e+06)
400           (1.24297e+06 -334743 -1.05705e+07) (672820 1.49113e+06 -3.19375e+07) (-1.3388e+06 -498734 -3.10765e+07) (1.69871e+06 1.05718e+06 -1.89464e+07) (-1.53225e+06 -967379 -2.00603e+07) (40003.7 -57952.4 -6.78866e+06) (-125013 -44704.7 -3.4177e+06) (-316.749 80865.6 -710021) (-6458.57 -4560.7 615791) (-178537 -71792 2.46346e+06) (138256 38770.2 2.01717e+06)
450           (1.17274e+06 -315694 -9.86844e+06) (741582 1.42608e+06 -3.01706e+07) (-1.2817e+06 -501416 -2.97204e+07) (1.70194e+06 1.01142e+06 -1.85138e+07) (-1.59617e+06 -999295 -2.08206e+07) (97819.7 -98806.2 -8.14769e+06) (-151587 -68418.6 -4.74135e+06) (7984.8 114306 -1.1032e+06) (-6517.97 -3932.42 509346) (-171926 -65100.9 2.43255e+06) (130675 36443.7 1.87922e+06)
500           (1.1131e+06 -299570 -9.27435e+06) (799123 1.37005e+06 -2.86607e+07) (-1.23067e+06 -501157 -2.85062e+07) (1.69265e+06 967236 -1.80331e+07) (-1.6129e+06 -1.00835e+06 -2.09714e+07) (176806 -156226 -9.14979e+06) (-167895 -98896.6 -6.28763e+06) (20485.1 154346 -1.61706e+06) (-6248.31 -3127.65 335354) (-162336 -58890.2 2.34775e+06) (122772 33744.8 1.74481e+06)
550           (1.06152e+06 -285702 -8.76246e+06) (848236 1.32102e+06 -2.73501e+07) (-1.18495e+06 -499357 -2.7416e+07) (1.6774e+06 925884 -1.7548e+07) (-1.60438e+06 -1.00707e+06 -2.08017e+07) (260869 -216721 -9.74059e+06) (-166506 -132727 -7.92744e+06) (38628.9 198798 -2.25943e+06) (-5453.13 -2198.15 77537.4) (-149415 -53426.6 2.20149e+06) (114308 30693.5 1.60794e+06)
600           (1.01627e+06 -273575 -8.31461e+06) (890886 1.27761e+06 -2.61963e+07) (-1.14371e+06 -496701 -2.64315e+07) (1.65943e+06 887558 -1.70766e+07) (-1.5834e+06 -1.00031e+06 -2.04728e+07) (332620 -265976 -9.99988e+06) (-144448 -164048 -9.47608e+06) (63925.5 243194 -3.02082e+06) (-3886.76 -1239.85 -280623) (-132601 -48849.9 1.98352e+06) (104918 27217.5 1.4619e+06)
650           (976075 -262830 -7.91762e+06) (928457 1.23877e+06 -2.51684e+07) (-1.10626e+06 -493581 -2.55368e+07) (1.6403e+06 852081 -1.66259e+07) (-1.55635e+06 -990430 -2.00663e+07) (385251 -300732 -1.00452e+07) (-106560 -187400 -1.07661e+07) (97601.4 281224 -3.86864e+06) (-1227.78 -386.174 -752682) (-111164 -45120.2 1.68207e+06) (94158.1 23175.7 1.29922e+06)
700           (939972 -253199 -7.56171e+06) (961963 1.20366e+06 -2.42428e+07) (-1.07201e+06 -490220 -2.47182e+07) (1.62084e+06 819167 -1.61977e+07) (-1.52633e+06 -978789 -1.96228e+07) (421265 -324538 -9.96566e+06) (-62572.8 -200850 -1.17159e+07) (139864 306633 -4.74667e+06) (2864.63 239.389 -1.34469e+06) (-84270.2 -41970.9 1.28462e+06) (81521.2 18398.4 1.11175e+06)
750           (907224 -244480 -7.23942e+06) (992165 1.17165e+06 -2.34015e+07) (-1.04047e+06 -486741 -2.39639e+07) (1.60146e+06 788505 -1.57914e+07) (-1.49488e+06 -966164 -1.91628e+07) (445586 -341370 -9.81311e+06) (-20755.1 -206271 -1.2338e+07) (189204 315890 -5.58536e+06) (8632.89 617.956 -2.04922e+06) (-51120.2 -38851 780207) (66476.1 12719.1 891032)
800           (877236 -236531 -6.94495e+06) (1.01964e+06 1.14218e+06 -2.26303e+07) (-1.01124e+06 -483228 -2.3264e+07) (1.58223e+06 759750 -1.5405e+07) (-1.46277e+06 -953059 -1.86963e+07) (462015 -353852 -9.61528e+06) (15030.1 -206948 -1.26976e+07) (242293 309493 -6.32241e+06) (16052.7 966.666 -2.84038e+06) (-11152.1 -34891.6 163287) (48528.7 5996.29 629041)
850           (849570 -229190 -6.67346e+06) (1.04487e+06 1.11488e+06 -2.19168e+07) (-983899 -479673 -2.26098e+07) (1.56342e+06 732698 -1.50365e+07) (-1.43051e+06 -939594 -1.82301e+07) (473361 -363337 -9.38886e+06) (44822.4 -205477 -1.28708e+07) (294588 291226 -6.92211e+06) (24646.8 1676.44 -3.67278e+06) (35656.7 -28893.3 -562525) (27327.2 -1784.02 319249)
900           (823820 -222367 -6.42109e+06) (1.06825e+06 1.08938e+06 -2.12518e+07) (-958195 -476136 -2.19944e+07) (1.54502e+06 707093 -1.46841e+07) (-1.39845e+06 -926066 -1.77684e+07) (481254 -370832 -9.14559e+06) (69860.1 -203132 -1.29219e+07) (342277 265253 -7.38377e+06) (33627.7 3254.13 -4.49209e+06) (88664.8 -19555.1 -1.38002e+06) (2757.36 -10559.9 -41587.5)
950           (799691 -215981 -6.18484e+06) (1.09007e+06 1.06541e+06 -2.06278e+07) (-933912 -472651 -2.1413e+07) (1.52714e+06 682785 -1.4347e+07) (-1.36697e+06 -912676 -1.73161e+07) (486936 -376984 -8.89536e+06) (91620.1 -200430 -1.28991e+07) (383402 235160 -7.73066e+06) (42195.3 5934.81 -5.2503e+06) (146511 -5817.96 -2.25949e+06) (-24975 -20135.1 -452283)
1000          (776955 -209970 -5.96252e+06) (1.11056e+06 1.04283e+06 -2.00398e+07) (-910856 -469165 -2.08626e+07) (1.50994e+06 659754 -1.40252e+07) (-1.33642e+06 -899642 -1.68783e+07) (491292 -382155 -8.64657e+06) (111074 -197536 -1.28364e+07) (417839 203681 -7.99365e+06) (49973.6 9506.15 -5.91944e+06) (207232 12702.4 -3.16342e+06) (-55368.1 -30248.8 -906539)
1050          (755525 -204305 -5.7529e+06) (1.12987e+06 1.02147e+06 -1.94849e+07) (-889113 -465922 -2.03418e+07) (1.49347e+06 637874 -1.37196e+07) (-1.30719e+06 -887124 -1.64593e+07) (494886 -386890 -8.40519e+06) (128906 -194737 -1.27558e+07) (447032 172407 -8.2003e+06) (56689.1 13566.1 -6.49397e+06) (268924 35571.4 -4.05492e+06) (-87486.9 -40533.5 -1.39302e+06)
1100          (735307 -198961 -5.55514e+06) (1.14809e+06 1.00132e+06 -1.89614e+07) (-868599 -462859 -1.98505e+07) (1.47793e+06 617228 -1.34312e+07) (-1.27957e+06 -875296 -1.60634e+07) (498104 -391277 -8.17632e+06) (145351 -192076 -1.26715e+07) (472106 142497 -8.37033e+06) (62572.6 17628.4 -6.98409e+06) (329547 61559.5 -4.90382e+06) (-120373 -50708.4 -1.89722e+06)
1150          (716276 -193928 -5.36892e+06) (1.16527e+06 982374 -1.84688e+07) (-849330 -460009 -1.93889e+07) (1.46341e+06 597853 -1.3161e+07) (-1.2538e+06 -864274 -1.56937e+07) (501167 -395433 -7.96321e+06) (160556 -189637 -1.2592e+07) (494122 114544 -8.51702e+06) (67796.3 21417 -7.40592e+06) (387508 89090.2 -5.69113e+06) (-153002 -60526.1 -2.40323e+06)
1200          (698431 -189205 -5.1942e+06) (1.1814e+06 964634 -1.80072e+07) (-831332 -457392 -1.89579e+07) (1.44999e+06 579788 -1.29099e+07) (-1.23001e+06 -854131 -1.53523e+07) (504191 -399417 -7.76781e+06) (174601 -187472 -1.25222e+07) (513813 88852.5 -8.64877e+06) (72487.1 24827.5 -7.77479e+06) (441693 116646 -6.40847e+06) (-184472 -69807.2 -2.89612e+06)
1250          (681854 -184803 -5.03145e+06) (1.1965e+06 948140 -1.75774e+07) (-814729 -455168 -1.85582e+07) (1.4377e+06 562965 -1.26785e+07) (-1.20819e+06 -844795 -1.50389e+07) (507278 -403370 -7.59034e+06) (187656 -185700 -1.2464e+07) (531855 65556.7 -8.77066e+06) (76607.3 27868.8 -8.10185e+06) (491624 143070 -7.05627e+06) (-214004 -78374.1 -3.36371e+06)
1300          (666443 -180720 -4.88038e+06) (1.2105e+06 932883 -1.71795e+07) (-799335 -453020 -1.81897e+07) (1.42655e+06 547602 -1.24664e+07) (-1.18851e+06 -836470 -1.47557e+07) (510311 -407035 -7.4318e+06) (199514 -184118 -1.24185e+07) (548078 44639 -8.88489e+06) (80448.9 30535.5 -8.39605e+06) (536749 167558 -7.63524e+06) (-241323 -86289.9 -3.79746e+06)
1350          (652235 -176950 -4.74094e+06) (1.22345e+06 918857 -1.68131e+07) (-785243 -451116 -1.78525e+07) (1.41653e+06 533584 -1.2274e+07) (-1.17088e+06 -829061 -1.45018e+07) (513343 -410540 -7.2917e+06) (210319 -182818 -1.23854e+07) (562872 26073.2 -8.99283e+06) (83917.5 32881.5 -8.66172e+06) (577229 189739 -8.1511e+06) (-266094 -93455.2 -4.1924e+06)
1400          (639230 -173495 -4.61317e+06) (1.23534e+06 906055 -1.64781e+07) (-772433 -449443 -1.75459e+07) (1.40761e+06 520883 -1.21006e+07) (-1.15522e+06 -822514 -1.42757e+07) (516339 -413867 -7.16888e+06) (220109 -181775 -1.23631e+07) (576337 9728.37 -9.09471e+06) (87037 34940.4 -8.9019e+06) (613259 209498 -8.60907e+06) (-288265 -99873.9 -4.54681e+06)
1450          (627408 -170352 -4.49692e+06) (1.24619e+06 894451 -1.6174e+07) (-760868 -447983 -1.72692e+07) (1.39971e+06 509453 -1.19454e+07) (-1.14139e+06 -816769 -1.40758e+07) (519255 -416995 -7.06194e+06) (228925 -180955 -1.235e+07) (588542 -4565.02 -9.1903e+06) (89830.2 36742.8 -9.11859e+06) (645128 226896 -9.01421e+06) (-307912 -105573 -4.86132e+06)
1500          (616734 -167510 -4.39185e+06) (1.25602e+06 884000 -1.58997e+07) (-750493 -446718 -1.7021e+07) (1.39276e+06 499231 -1.18073e+07) (-1.12924e+06 -811755 -1.39e+07) (522048 -419905 -6.96935e+06) (236817 -180321 -1.23442e+07) (599545 -16998.3 -9.27919e+06) (92318.9 38316.7 -9.31331e+06) (673173 242091 -9.37134e+06) (-325191 -110598 -5.13812e+06)
1550          (607158 -164958 -4.2975e+06) (1.26486e+06 874648 -1.56538e+07) (-741242 -445627 -1.67998e+07) (1.38667e+06 490142 -1.16851e+07) (-1.11863e+06 -807400 -1.37461e+07) (524684 -422586 -6.88953e+06) (243840 -179838 -1.23438e+07) (609407 -27769.3 -9.36107e+06) (94525.6 39687.5 -9.48741e+06) (697748 255289 -9.68503e+06) (-340302 -115002 -5.38022e+06)
1600          (598616 -162680 -4.21327e+06) (1.27277e+06 866325 -1.54347e+07) (-733037 -444690 -1.66035e+07) (1.38137e+06 482101 -1.15775e+07) (-1.1094e+06 -803632 -1.3612e+07) (527138 -425032 -6.82093e+06) (250057 -179475 -1.23473e+07) (618196 -37071.9 -9.43578e+06) (96473.2 40878.6 -9.64228e+06) (719205 266709 -9.95967e+06) (-353462 -118845 -5.59101e+06)
1650          (590990 -160708 -4.13849e+06) (1.2798e+06 858960 -1.52406e+07) (-725738 -443796 -1.64304e+07) (1.37675e+06 475065 -1.14831e+07) (-1.10139e+06 -800387 -1.34954e+07) (529357 -427165 -6.76209e+06) (255445 -179168 -1.23533e+07) (625858 -45134.4 -9.50338e+06) (98243.6 41879.6 -9.77932e+06) (737872 276570 -1.01993e+07) (-364926 -122221 -5.77388e+06)
1700          (584305 -158917 -4.07244e+06) (1.28602e+06 852466 -1.50693e+07) (-719377 -443113 -1.62781e+07) (1.37275e+06 468854 -1.14007e+07) (-1.09446e+06 -797585 -1.33944e+07) (531410 -429158 -6.71169e+06) (260264 -178971 -1.23609e+07) (632753 -52023.9 -9.56397e+06) (99732.4 42784.1 -9.9001e+06) (754093 285056 -1.0408e+07) (-374816 -125115 -5.93224e+06)
1750          (578429 -157339 -4.01432e+06) (1.2915e+06 846766 -1.49188e+07) (-713810 -442537 -1.61449e+07) (1.3693e+06 463421 -1.13289e+07) (-1.08847e+06 -795177 -1.33072e+07) (533262 -430936 -6.6686e+06) (264476 -178832 -1.23692e+07) (638802 -57947.3 -9.61794e+06) (101034 43559.9 -1.00061e+07) (768153 292364 -1.05893e+07) (-383363 -127619 -6.06906e+06)
1800          (573330 -155920 -3.96348e+06) (1.29631e+06 841771 -1.47872e+07) (-709008 -442127 -1.60285e+07) (1.3663e+06 458640 -1.12665e+07) (-1.0833e+06 -793110 -1.32316e+07) (534913 -432592 -6.63132e+06) (268211 -178773 -1.2378e+07) (644194 -63038.8 -9.66559e+06) (102101 44266.5 -1.00988e+07) (780364 298651 -1.07466e+07) (-390699 -129757 -6.18713e+06)
1850          (568831 -154717 -3.919e+06) (1.30051e+06 837426 -1.46723e+07) (-704772 -441698 -1.59273e+07) (1.36373e+06 454532 -1.12124e+07) (-1.07885e+06 -791334 -1.31667e+07) (536382 -433968 -6.59984e+06) (271395 -178697 -1.23864e+07) (648795 -67404.9 -9.70767e+06) (103093 44839.1 -1.01795e+07) (790866 304051 -1.08825e+07) (-397065 -131627 -6.28885e+06)
1900          (564914 -153668 -3.88024e+06) (1.30418e+06 833647 -1.45722e+07) (-701094 -441331 -1.58394e+07) (1.36152e+06 450968 -1.11656e+07) (-1.07502e+06 -789812 -1.31108e+07) (537680 -435176 -6.57297e+06) (274155 -178643 -1.23943e+07) (652797 -71150 -9.74458e+06) (103953 45332.1 -1.02497e+07) (799925 308687 -1.09999e+07) (-402546 -133238 -6.37642e+06)
1950          (561510 -152757 -3.84656e+06) (1.30737e+06 830367 -1.44853e+07) (-697907 -441019 -1.57633e+07) (1.35962e+06 447884 -1.11251e+07) (-1.07174e+06 -788508 -1.30627e+07) (538821 -436233 -6.55e+06) (276543 -178606 -1.24017e+07) (656269 -74361.2 -9.77684e+06) (104697 45756.2 -1.03105e+07) (807731 312667 -1.11012e+07) (-407263 -134625 -6.45175e+06)
2000          (558560 -151967 -3.81736e+06) (1.31013e+06 827526 -1.441e+07) (-695150 -440753 -1.56974e+07) (1.35799e+06 445219 -1.10902e+07) (-1.06891e+06 -787390 -1.30214e+07) (539819 -437153 -6.53038e+06) (278607 -178580 -1.24085e+07) (659276 -77114.3 -9.80493e+06) (105339 46121 -1.03632e+07) (814451 316083 -1.11885e+07) (-411319 -135819 -6.51651e+06)
2050          (556008 -151273 -3.79209e+06) (1.31253e+06 825099 -1.43448e+07) (-692714 -440480 -1.56405e+07) (1.35665e+06 442961 -1.10602e+07) (-1.06646e+06 -786412 -1.29859e+07) (540717 -437851 -6.51352e+06) (280404 -178545 -1.24149e+07) (661744 -79432 -9.82908e+06) (105942 46406.5 -1.04087e+07) (820186 318995 -1.12639e+07) (-414841 -136849 -6.5721e+06)
2100          (553792 -150709 -3.77026e+06) (1.31459e+06 822950 -1.42885e+07) (-690699 -440311 -1.55917e+07) (1.35542e+06 440953 -1.10341e+07) (-1.0644e+06 -785611 -1.29556e+07) (541471 -438577 -6.49907e+06) (281937 -178547 -1.24204e+07) (664026 -81461.7 -9.85023e+06) (106411 46678.9 -1.0448e+07) (825171 321524 -1.13285e+07) (-417821 -137730 -6.61993e+06)
2150          (551896 -150199 -3.75145e+06) (1.31637e+06 821105 -1.42398e+07) (-688946 -440146 -1.55498e+07) (1.35437e+06 439245 -1.10117e+07) (-1.06263e+06 -784915 -1.29296e+07) (542124 -439180 -6.48683e+06) (283258 -178533 -1.24251e+07) (665976 -83187.9 -9.86861e+06) (106820 46916.3 -1.04818e+07) (829442 323666 -1.13841e+07) (-420393 -138488 -6.66093e+06)
2200          (550255 -149762 -3.73521e+06) (1.31791e+06 819542 -1.41983e+07) (-687418 -440010 -1.55131e+07) (1.35348e+06 437781 -1.09928e+07) (-1.06108e+06 -784310 -1.2907e+07) (542682 -439719 -6.4763e+06) (284398 -178532 -1.24294e+07) (667673 -84688.8 -9.88442e+06) (107153 47130.1 -1.05109e+07) (833127 325499 -1.14319e+07) (-422592 -139139 -6.6961e+06)
2250          (548874 -149353 -3.72128e+06) (1.31925e+06 818186 -1.41625e+07) (-686148 -439934 -1.54818e+07) (1.35267e+06 436485 -1.09763e+07) (-1.0598e+06 -783804 -1.28877e+07) (543159 -440250 -6.46741e+06) (285372 -178548 -1.2433e+07) (669205 -85990.2 -9.89823e+06) (107408 47314.6 -1.05359e+07) (836311 327112 -1.14726e+07) (-424449 -139686 -6.72634e+06)
2300          (547686 -148995 -3.70932e+06) (1.32039e+06 817021 -1.41313e+07) (-685006 -439799 -1.54554e+07) (1.35205e+06 435441 -1.09619e+07) (-1.05871e+06 -783385 -1.28717e+07) (543581 -440531 -6.45953e+06) (286206 -178527 -1.24365e+07) (670300 -87031.5 -9.90968e+06) (107718 47437.1 -1.05575e+07) (838959 328439 -1.1508e+07) (-426103 -140171 -6.75213e+06)
2350          (546640 -148722 -3.699e+06) (1.32136e+06 816027 -1.41049e+07) (-684033 -439708 -1.54322e+07) (1.3515e+06 434513 -1.09499e+07) (-1.05773e+06 -783001 -1.28575e+07) (543943 -440868 -6.45296e+06) (286926 -178530 -1.24394e+07) (671362 -87974.8 -9.91964e+06) (107937 47564.7 -1.0576e+07) (841269 329605 -1.1538e+07) (-427493 -140582 -6.77432e+06)
2400          (545740 -148488 -3.69012e+06) (1.32221e+06 815171 -1.40821e+07) (-683200 -439632 -1.54123e+07) (1.35102e+06 433712 -1.09396e+07) (-1.0569e+06 -782672 -1.28453e+07) (544257 -441161 -6.44736e+06) (287542 -178531 -1.24419e+07) (672279 -88779.9 -9.92832e+06) (108126 47673.3 -1.05919e+07) (843255 330604 -1.15638e+07) (-428683 -140933 -6.79334e+06)
2450          (544967 -148287 -3.6825e+06) (1.32293e+06 814435 -1.40626e+07) (-682487 -439567 -1.53952e+07) (1.35061e+06 433023 -1.09307e+07) (-1.05619e+06 -782392 -1.28349e+07) (544527 -441413 -6.44258e+06) (288072 -178531 -1.24441e+07) (673068 -89468.8 -9.93581e+06) (108288 47766.3 -1.06055e+07) (844960 331460 -1.1586e+07) (-429703 -141234 -6.80964e+06)
2500          (544303 -148114 -3.67594e+06) (1.32355e+06 813802 -1.40458e+07) (-681875 -439512 -1.53805e+07) (1.35026e+06 432432 -1.09231e+07) (-1.05558e+06 -782152 -1.28259e+07) (544761 -441631 -6.43849e+06) (288527 -178532 -1.24459e+07) (673745 -90058.9 -9.94225e+06) (108428 47846.1 -1.06172e+07) (846423 332193 -1.16051e+07) (-430577 -141492 -6.82362e+06)
2550          (543751 -147961 -3.67033e+06) (1.32409e+06 813249 -1.40314e+07) (-681390 -439498 -1.53681e+07) (1.34992e+06 431911 -1.09165e+07) (-1.05507e+06 -781959 -1.28183e+07) (544951 -441881 -6.4349e+06) (288922 -178550 -1.24475e+07) (674431 -90558.5 -9.94782e+06) (108498 47945 -1.06273e+07) (847708 332822 -1.16214e+07) (-431298 -141707 -6.83563e+06)
2600          (543235 -147882 -3.66557e+06) (1.32454e+06 812802 -1.40193e+07) (-680902 -439426 -1.53573e+07) (1.34973e+06 431451 -1.09112e+07) (-1.05461e+06 -781758 -1.28117e+07) (545190 -442000 -6.43188e+06) (289305 -178542 -1.24492e+07) (674780 -91064.3 -9.9522e+06) (108657 47968.7 -1.0636e+07) (848716 333425 -1.16348e+07) (-431958 -141886 -6.84577e+06)
2650          (542833 -147765 -3.66162e+06) (1.3249e+06 812412 -1.40091e+07) (-680529 -439391 -1.53483e+07) (1.3495e+06 431135 -1.09065e+07) (-1.05423e+06 -781616 -1.28062e+07) (545277 -442102 -6.42935e+06) (289543 -178538 -1.245e+07) (675212 -91372.8 -9.95624e+06) (108728 48021.7 -1.06429e+07) (849639 333809 -1.16469e+07) (-432495 -142056 -6.85431e+06)
2700          (542495 -147646 -3.65817e+06) (1.32524e+06 812107 -1.40003e+07) (-680187 -439353 -1.53403e+07) (1.34933e+06 430824 -1.09027e+07) (-1.05386e+06 -781460 -1.2801e+07) (545394 -442216 -6.42745e+06) (289760 -178517 -1.24505e+07) (675592 -91638.7 -9.95993e+06) (108820 48060 -1.06489e+07) (850418 334182 -1.16571e+07) (-432968 -142193 -6.86172e+06)
2750          (542210 -147546 -3.65519e+06) (1.32555e+06 811816 -1.39924e+07) (-679909 -439335 -1.5334e+07) (1.34916e+06 430534 -1.0899e+07) (-1.05362e+06 -781389 -1.27973e+07) (545529 -442310 -6.42538e+06) (289976 -178523 -1.24518e+07) (675836 -92026 -9.9627e+06) (108917 48076.8 -1.06544e+07) (851068 334578 -1.16654e+07) (-433378 -142320 -6.86816e+06)
2800          (541983 -147459 -3.6527e+06) (1.32579e+06 811575 -1.3986e+07) (-679697 -439329 -1.53286e+07) (1.34904e+06 430308 -1.0896e+07) (-1.0534e+06 -781302 -1.2794e+07) (545630 -442388 -6.42356e+06) (290198 -178520 -1.24527e+07) (676097 -92196.9 -9.96483e+06) (108945 48138.5 -1.0659e+07) (851598 334852 -1.16728e+07) (-433707 -142399 -6.87354e+06)
2850          (541700 -147490 -3.65044e+06) (1.32596e+06 811322 -1.39804e+07) (-679501 -439267 -1.53236e+07) (1.34884e+06 430119 -1.08933e+07) (-1.05321e+06 -781240 -1.2791e+07) (545660 -442526 -6.42213e+06) (290287 -178522 -1.24533e+07) (676438 -92414.3 -9.96718e+06) (108936 48194.9 -1.0663e+07) (852147 335105 -1.16792e+07) (-433978 -142507 -6.87836e+06)
2900          (541525 -147411 -3.64864e+06) (1.32614e+06 811160 -1.39757e+07) (-679316 -439280 -1.53194e+07) (1.34879e+06 429956 -1.08913e+07) (-1.05301e+06 -781141 -1.27884e+07) (545740 -442528 -6.42119e+06) (290440 -178528 -1.24535e+07) (676556 -92537.9 -9.96904e+06) (109018 48180.4 -1.06661e+07) (852542 335271 -1.16847e+07) (-434246 -142575 -6.8822e+06)
2950          (541369 -147374 -3.64713e+06) (1.32627e+06 811009 -1.39718e+07) (-679175 -439263 -1.5316e+07) (1.34871e+06 429824 -1.08895e+07) (-1.05287e+06 -781087 -1.27864e+07) (545787 -442571 -6.4202e+06) (290544 -178528 -1.24539e+07) (676703 -92665.7 -9.97048e+06) (109046 48201.7 -1.06688e+07) (852879 335439 -1.16892e+07) (-434447 -142636 -6.88546e+06)
3000          (541234 -147326 -3.64574e+06) (1.32642e+06 810886 -1.39683e+07) (-679036 -439240 -1.53127e+07) (1.34862e+06 429701 -1.08879e+07) (-1.05273e+06 -781029 -1.27842e+07) (545822 -442631 -6.41941e+06) (290615 -178518 -1.24542e+07) (676875 -92801.9 -9.97204e+06) (109077 48217.4 -1.06712e+07) (853212 335595 -1.16932e+07) (-434637 -142692 -6.88843e+06)
3050          (541122 -147320 -3.64464e+06) (1.32654e+06 810771 -1.39655e+07) (-678984 -439301 -1.53103e+07) (1.34855e+06 429544 -1.08867e+07) (-1.05261e+06 -780977 -1.27825e+07) (545915 -442768 -6.41871e+06) (290750 -178559 -1.24545e+07) (677149 -92939.5 -9.97333e+06) (109066 48235.6 -1.0673e+07) (853510 335749 -1.16965e+07) (-434747 -142713 -6.89077e+06)
3100          (541025 -147266 -3.64367e+06) (1.32662e+06 810683 -1.39629e+07) (-678838 -439222 -1.53081e+07) (1.34852e+06 429516 -1.08855e+07) (-1.05253e+06 -780951 -1.27813e+07) (545894 -442697 -6.41814e+06) (290757 -178515 -1.24547e+07) (677072 -92991.8 -9.97407e+06) (109125 48243.7 -1.0675e+07) (853664 335826 -1.16992e+07) (-434918 -142776 -6.89289e+06)
3150          (540945 -147242 -3.64286e+06) (1.32669e+06 810615 -1.39607e+07) (-678752 -439178 -1.53064e+07) (1.34845e+06 429455 -1.08844e+07) (-1.05249e+06 -780935 -1.27806e+07) (545902 -442690 -6.41741e+06) (290783 -178507 -1.24552e+07) (677134 -92997.6 -9.97465e+06) (109154 48262.2 -1.06765e+07) (853839 335912 -1.17018e+07) (-435032 -142813 -6.89469e+06)
3200          (540886 -147193 -3.64211e+06) (1.32678e+06 810537 -1.39588e+07) (-678696 -439210 -1.53049e+07) (1.34843e+06 429371 -1.08835e+07) (-1.05244e+06 -780943 -1.27797e+07) (545962 -442718 -6.41684e+06) (290869 -178517 -1.24556e+07) (677220 -93145.7 -9.97542e+06) (109170 48249.6 -1.06778e+07) (854005 336019 -1.17038e+07) (-435130 -142838 -6.89626e+06)
3250          (540793 -147247 -3.64152e+06) (1.32683e+06 810479 -1.39573e+07) (-678661 -439230 -1.53037e+07) (1.34841e+06 429275 -1.08829e+07) (-1.0524e+06 -780904 -1.2779e+07) (546045 -442775 -6.41647e+06) (290975 -178547 -1.24558e+07) (677320 -93215.1 -9.97596e+06) (109180 48251 -1.06787e+07) (854149 336119 -1.17056e+07) (-435188 -142844 -6.89747e+06)
3300          (540779 -147193 -3.64105e+06) (1.3269e+06 810419 -1.39562e+07) (-678652 -439334 -1.53024e+07) (1.34838e+06 429187 -1.08824e+07) (-1.05228e+06 -780851 -1.27777e+07) (546108 -442887 -6.41627e+06) (291076 -178603 -1.24558e+07) (677453 -93404.3 -9.97659e+06) (109146 48258.4 -1.06797e+07) (854318 336202 -1.17068e+07) (-435229 -142858 -6.89859e+06)
3350          (540693 -147199 -3.64058e+06) (1.32691e+06 810398 -1.39549e+07) (-678506 -439149 -1.53013e+07) (1.34838e+06 429260 -1.08818e+07) (-1.05223e+06 -780846 -1.27772e+07) (546042 -442737 -6.416e+06) (290970 -178491 -1.24558e+07) (677306 -93310.5 -9.97689e+06) (109255 48255.3 -1.06805e+07) (854321 336208 -1.17083e+07) (-435366 -142913 -6.89958e+06)
3400          (540706 -147165 -3.64025e+06) (1.32697e+06 810404 -1.39541e+07) (-678502 -439127 -1.53005e+07) (1.34834e+06 429206 -1.08815e+07) (-1.05222e+06 -780789 -1.27765e+07) (546027 -442801 -6.4159e+06) (290981 -178478 -1.24558e+07) (677421 -93194.6 -9.97744e+06) (109198 48306.9 -1.0681e+07) (854420 336276 -1.17094e+07) (-435376 -142890 -6.9003e+06)
3450          (540680 -147165 -3.63993e+06) (1.32705e+06 810378 -1.39533e+07) (-678529 -439234 -1.53e+07) (1.34828e+06 429110 -1.0881e+07) (-1.0522e+06 -780790 -1.27763e+07) (546030 -442889 -6.41551e+06) (291035 -178537 -1.24561e+07) (677489 -93455.3 -9.97762e+06) (109216 48309 -1.06817e+07) (854546 336311 -1.17101e+07) (-435412 -142897 -6.90106e+06)
3500          (540609 -147192 -3.63969e+06) (1.32699e+06 810313 -1.39526e+07) (-678456 -439186 -1.52993e+07) (1.34833e+06 429152 -1.08808e+07) (-1.05217e+06 -780797 -1.27759e+07) (546124 -442807 -6.41537e+06) (291133 -178512 -1.24561e+07) (677450 -93410.3 -9.97773e+06) (109252 48267.2 -1.06821e+07) (854538 336361 -1.17109e+07) (-435475 -142933 -6.90158e+06)
3550          (540614 -147134 -3.63949e+06) (1.32702e+06 810308 -1.39521e+07) (-678413 -439127 -1.52989e+07) (1.34832e+06 429166 -1.08805e+07) (-1.05215e+06 -780819 -1.27756e+07) (546061 -442765 -6.41522e+06) (291053 -178468 -1.24561e+07) (677413 -93313.5 -9.97784e+06) (109272 48283.6 -1.06825e+07) (854552 336335 -1.17117e+07) (-435525 -142961 -6.90205e+06)
3600          (540567 -147178 -3.63935e+06) (1.32702e+06 810281 -1.39518e+07) (-678398 -439155 -1.52984e+07) (1.34832e+06 429140 -1.08805e+07) (-1.0521e+06 -780778 -1.27753e+07) (546114 -442781 -6.41525e+06) (291107 -178493 -1.24558e+07) (677449 -93432.1 -9.97819e+06) (109284 48271.2 -1.06826e+07) (854614 336372 -1.17121e+07) (-435549 -142969 -6.90235e+06)
3650          (540584 -147144 -3.63928e+06) (1.32703e+06 810255 -1.39516e+07) (-678429 -439188 -1.52983e+07) (1.34827e+06 429115 -1.08802e+07) (-1.05213e+06 -780802 -1.27754e+07) (546044 -442831 -6.41512e+06) (291068 -178519 -1.24559e+07) (677521 -93400 -9.97821e+06) (109217 48291.2 -1.0683e+07) (854675 336327 -1.17122e+07) (-435519 -142959 -6.90255e+06)
3700          (540582 -147119 -3.63917e+06) (1.32705e+06 810280 -1.39513e+07) (-678375 -439127 -1.5298e+07) (1.34829e+06 429125 -1.08802e+07) (-1.05207e+06 -780790 -1.27749e+07) (546067 -442789 -6.41508e+06) (291047 -178464 -1.24559e+07) (677475 -93340 -9.97834e+06) (109299 48303.8 -1.06829e+07) (854635 336383 -1.17129e+07) (-435578 -142976 -6.90288e+06)
3750          (540574 -147168 -3.63914e+06) (1.32707e+06 810246 -1.39513e+07) (-678456 -439270 -1.5298e+07) (1.34828e+06 429036 -1.08802e+07) (-1.05209e+06 -780755 -1.27749e+07) (546153 -442918 -6.41503e+06) (291195 -178565 -1.2456e+07) (677625 -93535.6 -9.97842e+06) (109193 48294 -1.0683e+07) (854747 336404 -1.17127e+07) (-435514 -142933 -6.90292e+06)
3800          (540574 -147168 -3.63914e+06) (1.32707e+06 810246 -1.39513e+07) (-678456 -439270 -1.5298e+07) (1.34828e+06 429036 -1.08802e+07) (-1.05209e+06 -780755 -1.27749e+07) (546153 -442918 -6.41503e+06) (291195 -178565 -1.2456e+07) (677625 -93535.6 -9.97842e+06) (109193 48294 -1.0683e+07) (854747 336404 -1.17127e+07) (-435514 -142933 -6.90292e+06)
3850          (540574 -147168 -3.63914e+06) (1.32707e+06 810246 -1.39513e+07) (-678456 -439270 -1.5298e+07) (1.34828e+06 429036 -1.08802e+07) (-1.05209e+06 -780755 -1.27749e+07) (546153 -442918 -6.41503e+06) (291195 -178565 -1.2456e+07) (677625 -93535.6 -9.97842e+06) (109193 48294 -1.0683e+07) (854747 336404 -1.17127e+07) (-435514 -142933 -6.90292e+06)
3900          (540574 -147168 -3.63914e+06) (1.32707e+06 810246 -1.39513e+07) (-678456 -439270 -1.5298e+07) (1.34828e+06 429036 -1.08802e+07) (-1.05209e+06 -780755 -1.27749e+07) (546153 -442918 -6.41503e+06) (291195 -178565 -1.2456e+07) (677625 -93535.6 -9.97842e+06) (109193 48294 -1.0683e+07) (854747 336404 -1.17127e+07) (-435514 -142933 -6.90292e+06)
3950          (540574 -147168 -3.63914e+06) (1.32707e+06 810246 -1.39513e+07) (-678456 -439270 -1.5298e+07) (1.34828e+06 429036 -1.08802e+07) (-1.05209e+06 -780755 -1.27749e+07) (546153 -442918 -6.41503e+06) (291195 -178565 -1.2456e+07) (677625 -93535.6 -9.97842e+06) (109193 48294 -1.0683e+07) (854747 336404 -1.17127e+07) (-435514 -142933 -6.90292e+06)
4000          (540574 -147168 -3.63914e+06) (1.32707e+06 810246 -1.39513e+07) (-678456 -439270 -1.5298e+07) (1.34828e+06 429036 -1.08802e+07) (-1.05209e+06 -780755 -1.27749e+07) (546153 -442918 -6.41503e+06) (291195 -178565 -1.2456e+07) (677625 -93535.6 -9.97842e+06) (109193 48294 -1.0683e+07) (854747 336404 -1.17127e+07) (-435514 -142933 -6.90292e+06)
4050          (540574 -147168 -3.63914e+06) (1.32707e+06 810246 -1.39513e+07) (-678456 -439270 -1.5298e+07) (1.34828e+06 429036 -1.08802e+07) (-1.05209e+06 -780755 -1.27749e+07) (546153 -442918 -6.41503e+06) (291195 -178565 -1.2456e+07) (677625 -93535.6 -9.97842e+06) (109193 48294 -1.0683e+07) (854747 336404 -1.17127e+07) (-435514 -142933 -6.90292e+06)
4100          (540574 -147168 -3.63914e+06) (1.32707e+06 810246 -1.39513e+07) (-678456 -439270 -1.5298e+07) (1.34828e+06 429036 -1.08802e+07) (-1.05209e+06 -780755 -1.27749e+07) (546153 -442918 -6.41503e+06) (291195 -178565 -1.2456e+07) (677625 -93535.6 -9.97842e+06) (109193 48294 -1.0683e+07) (854747 336404 -1.17127e+07) (-435514 -142933 -6.90292e+06)