# Probe 0 (0.0015 0.0015 0)
# Probe 1 (0.0015 0.0015 0.002)
# Probe 2 (0.0015 0.0015 0.004)
# Probe 3 (0.0015 0.0015 0.006)
# Probe 4 (0.0015 0.0015 0.008)
# Probe 5 (0.0015 0.0015 0.01)
# Probe 6 (0.0015 0.0015 0.012)
# Probe 7 (0.0015 0.0015 0.014)
# Probe 8 (0.0015 0.0015 0.016)
# Probe 9 (0.0015 0.0015 0.018)
# Probe 10 (0.0015 0.0015 0.02)
# Time        0             1             2             3             4             5             6             7             8             9             10           
50            (1.40966e-10 1.48958e-11 6.49856e-11) (3.76096e-10 -3.9892e-10 3.1662e-10) (6.35398e-10 -5.78957e-10 4.95707e-10) (8.17533e-10 -8.63872e-10 1.1738e-10) (1.18486e-09 -9.77795e-10 2.85694e-10) (1.47126e-09 -1.51659e-09 -5.51948e-10) (1.83796e-09 -1.55557e-09 4.92798e-10) (1.86169e-09 -1.67332e-09 5.32498e-10) (2.03805e-09 -2.00673e-09 1.02809e-09) (2.21766e-09 -2.23319e-09 2.86835e-10) (2.41657e-09 -1.87069e-09 -8.86673e-11)
100           (1.09738e-10 -4.97322e-11 -6.81975e-11) (7.64566e-10 -4.95792e-10 -1.38728e-10) (1.12261e-09 -1.14755e-09 5.8241e-12) (1.37992e-09 -1.42489e-09 6.08884e-11) (2.22611e-09 -1.97831e-09 -8.30727e-11) (2.57245e-09 -2.59227e-09 1.9649e-10) (3.27554e-09 -2.89957e-09 5.07265e-10) (3.74627e-09 -2.97911e-09 5.87145e-10) (3.86308e-09 -3.3688e-09 1.13474e-09) (3.96121e-09 -3.73467e-09 9.71452e-10) (3.96924e-09 -3.47465e-09 1.60906e-09)
150           (8.46635e-11 -1.14568e-10 2.91802e-11) (6.07678e-10 -5.44702e-10 -1.12636e-10) (1.61609e-09 -1.5265e-09 -2.03263e-10) (2.09366e-09 -1.97421e-09 -1.96827e-10) (3.23309e-09 -2.92191e-09 1.23391e-10) (3.83762e-09 -3.44097e-09 -4.14015e-10) (4.45932e-09 -4.11779e-09 3.83829e-10) (4.95035e-09 -4.59741e-09 3.85898e-12) (5.01708e-09 -4.66813e-09 9.3551e-10) (5.5892e-09 -4.63277e-09 2.22153e-10) (5.7389e-09 -4.39045e-09 8.45892e-10)
200           (8.84246e-11 -5.25491e-11 -9.40772e-11) (8.98528e-10 -9.54473e-10 8.26958e-11) (1.95372e-09 -1.71956e-09 1.39821e-10) (3.04009e-09 -2.55439e-09 7.27802e-11) (3.89463e-09 -3.25755e-09 3.66178e-10) (4.62111e-09 -4.21177e-09 3.02235e-11) (5.35782e-09 -4.74458e-09 5.38934e-10) (5.7847e-09 -5.08791e-09 9.96615e-10) (6.54836e-09 -5.53641e-09 1.56918e-09) (6.90009e-09 -5.74285e-09 9.89563e-10) (6.87137e-09 -5.57106e-09 1.20723e-09)
250           (1.4463e-10 -8.70361e-13 -6.57989e-12) (1.26126e-09 -7.54582e-10 3.64043e-10) (2.22433e-09 -2.04006e-09 -4.02014e-10) (3.25943e-09 -3.15135e-09 -8.53339e-10) (4.29898e-09 -4.0519e-09 -6.03576e-11) (5.12712e-09 -4.93167e-09 -3.53689e-10) (6.09045e-09 -5.60362e-09 6.50745e-10) (6.94273e-09 -6.19933e-09 8.61119e-10) (7.1499e-09 -6.31968e-09 6.42506e-10) (7.47613e-09 -6.59289e-09 8.30787e-10) (7.68679e-09 -6.41598e-09 2.22739e-09)
300           (2.04204e-11 -3.19295e-11 1.46853e-10) (1.11187e-09 -1.09559e-09 2.07641e-11) (2.6968e-09 -2.2782e-09 -2.42562e-10) (3.77583e-09 -3.24559e-09 -2.87491e-10) (4.8319e-09 -4.40334e-09 7.67598e-10) (5.97628e-09 -5.03807e-09 -9.6188e-11) (6.94923e-09 -5.95684e-09 3.07272e-10) (7.4358e-09 -6.73269e-09 -4.89159e-11) (8.02894e-09 -6.90956e-09 2.10626e-10) (8.70444e-09 -7.33388e-09 -4.30654e-10) (8.54602e-09 -7.29154e-09 7.42997e-10)
350           (9.13844e-12 -2.20568e-11 -1.44623e-10) (9.7872e-10 -1.02177e-09 5.51981e-10) (2.45766e-09 -2.34633e-09 1.5357e-10) (3.81794e-09 -3.81106e-09 5.90535e-11) (5.15259e-09 -4.67793e-09 8.96844e-10) (6.3106e-09 -5.68809e-09 7.77603e-10) (7.33942e-09 -6.56937e-09 1.19095e-09) (7.80411e-09 -7.22657e-09 8.96452e-10) (8.51288e-09 -7.47244e-09 9.64053e-10) (9.08619e-09 -7.98165e-09 1.06358e-09) (9.27223e-09 -7.79836e-09 1.17211e-09)
400           (1.94642e-10 2.42341e-11 9.09099e-11) (1.38361e-09 -1.08476e-09 2.02622e-10) (2.76094e-09 -2.29905e-09 8.24244e-10) (4.16673e-09 -3.81574e-09 1.7671e-10) (5.71766e-09 -5.09523e-09 1.15852e-09) (6.87663e-09 -6.27773e-09 7.2882e-10) (8.03769e-09 -6.96487e-09 1.08042e-09) (8.79332e-09 -7.87934e-09 1.04685e-09) (9.29292e-09 -7.919e-09 9.82041e-10) (9.89108e-09 -8.54286e-09 5.33468e-10) (9.63833e-09 -8.28318e-09 4.27937e-10)
450           (7.79399e-11 -5.28322e-11 -1.7793e-10) (1.48687e-09 -1.40122e-09 -5.91323e-10) (2.8521e-09 -2.4979e-09 -5.63686e-10) (4.54943e-09 -3.82074e-09 -7.01116e-11) (5.86675e-09 -5.04176e-09 3.20673e-10) (7.11033e-09 -6.22542e-09 4.42765e-10) (8.32443e-09 -7.11637e-09 1.44609e-09) (9.15835e-09 -8.18075e-09 8.68244e-10) (9.65466e-09 -8.45574e-09 1.8511e-09) (1.02267e-08 -9.07469e-09 1.4219e-09) (1.02967e-08 -8.85755e-09 1.43791e-09)
500           (8.84006e-11 -6.83853e-11 1.31722e-10) (1.35067e-09 -1.24158e-09 1.80263e-10) (2.92381e-09 -2.521e-09 2.87604e-10) (4.61634e-09 -3.74719e-09 -4.96159e-10) (6.02809e-09 -5.15009e-09 -1.66166e-10) (7.53769e-09 -6.53895e-09 -6.02945e-10) (8.45894e-09 -7.69261e-09 7.39405e-11) (9.28687e-09 -8.41101e-09 -8.82493e-10) (1.01687e-08 -8.90772e-09 2.95707e-10) (1.0904e-08 -9.20933e-09 1.0525e-10) (1.06859e-08 -9.02557e-09 -1.33177e-10)
550           (1.33672e-10 4.53538e-12 -2.53207e-10) (1.25227e-09 -1.39532e-09 -2.69019e-10) (3.08019e-09 -2.84616e-09 3.53704e-11) (4.59342e-09 -4.28335e-09 3.66135e-10) (6.2288e-09 -5.33988e-09 1.09863e-09) (7.46972e-09 -6.76525e-09 1.48588e-10) (8.69314e-09 -7.84723e-09 7.73322e-10) (9.42093e-09 -8.3813e-09 1.73207e-10) (1.02002e-08 -8.65647e-09 6.9889e-10) (1.09085e-08 -9.5661e-09 -2.85779e-10) (1.08227e-08 -9.32807e-09 5.99351e-10)
600           (1.5751e-10 6.0574e-11 -2.69454e-11) (1.50068e-09 -1.405e-09 1.4593e-10) (3.20673e-09 -3.0062e-09 1.03269e-10) (4.80849e-09 -4.24658e-09 -8.87003e-10) (6.15937e-09 -5.72689e-09 -4.66808e-10) (7.77937e-09 -7.12818e-09 -3.92823e-10) (9.04264e-09 -7.80447e-09 -3.21193e-10) (9.65581e-09 -8.59853e-09 -2.12563e-10) (1.06202e-08 -9.29891e-09 -9.31257e-11) (1.12529e-08 -9.84607e-09 -5.26163e-10) (1.13165e-08 -9.53078e-09 -1.12916e-09)
650           (1.48182e-10 -1.26135e-10 -1.30724e-10) (1.46471e-09 -1.35892e-09 -3.67268e-10) (2.9754e-09 -2.99864e-09 -1.18473e-09) (4.81903e-09 -4.41936e-09 -8.85194e-10) (6.48579e-09 -5.5682e-09 4.45553e-11) (8.09135e-09 -7.07911e-09 -2.4302e-10) (9.22999e-09 -8.03553e-09 -6.19484e-11) (1.00422e-08 -8.77165e-09 -5.87178e-11) (1.05709e-08 -9.42644e-09 4.10191e-10) (1.14652e-08 -9.85981e-09 -7.97461e-10) (1.13347e-08 -9.64413e-09 -8.98185e-10)
700           (1.56739e-10 -1.70428e-10 1.16608e-10) (1.49958e-09 -1.7052e-09 -2.66859e-10) (3.12585e-09 -3.20586e-09 2.47839e-10) (5.05242e-09 -4.45889e-09 1.59355e-10) (6.58943e-09 -5.72816e-09 5.95814e-10) (8.02542e-09 -7.00016e-09 1.78286e-10) (9.24612e-09 -8.00513e-09 7.01811e-10) (1.00288e-08 -8.901e-09 5.63952e-10) (1.07917e-08 -9.50487e-09 1.01335e-09) (1.16437e-08 -9.92411e-09 5.16537e-11) (1.15015e-08 -9.74993e-09 1.23162e-09)
750           (2.26797e-10 -5.17531e-11 2.21534e-11) (1.52903e-09 -1.31272e-09 4.79735e-10) (3.15001e-09 -3.08408e-09 -4.04161e-10) (4.90149e-09 -4.64575e-09 -2.70409e-10) (6.61856e-09 -5.91075e-09 6.51832e-10) (8.07984e-09 -7.29305e-09 -4.63351e-10) (9.73046e-09 -8.24508e-09 -6.62288e-10) (1.02267e-08 -9.05214e-09 -2.29166e-10) (1.09501e-08 -9.68296e-09 2.51675e-10) (1.16608e-08 -1.05306e-08 -3.37506e-11) (1.18572e-08 -1.02571e-08 1.85575e-10)
800           (1.5777e-10 -9.22289e-11 1.62701e-10) (1.55829e-09 -1.39664e-09 -4.22025e-10) (3.29089e-09 -2.87945e-09 -1.31536e-09) (5.09823e-09 -4.5e-09 -1.16554e-09) (6.51069e-09 -5.98899e-09 -6.00362e-10) (8.00677e-09 -7.36162e-09 -1.17176e-09) (9.56349e-09 -8.44942e-09 -6.02338e-10) (1.03643e-08 -9.43438e-09 -6.54095e-10) (1.09328e-08 -9.73366e-09 3.73376e-10) (1.1837e-08 -1.03711e-08 -9.98503e-10) (1.1831e-08 -1.00751e-08 -1.19417e-09)
850           (1.23305e-10 -1.33853e-10 2.23969e-12) (1.57146e-09 -1.6865e-09 3.83378e-10) (3.5813e-09 -2.84673e-09 1.87952e-10) (5.19071e-09 -4.30377e-09 -9.04934e-11) (6.62369e-09 -6.01615e-09 1.03388e-09) (8.00249e-09 -7.23681e-09 6.2595e-10) (9.42005e-09 -8.50334e-09 8.46579e-10) (1.01294e-08 -9.38219e-09 1.02164e-09) (1.10972e-08 -9.63876e-09 1.54007e-09) (1.19177e-08 -1.01135e-08 1.15487e-09) (1.18554e-08 -9.94766e-09 1.12821e-09)
900           (1.32203e-10 -1.16548e-11 3.37471e-11) (1.63805e-09 -1.43039e-09 3.82685e-10) (3.52418e-09 -2.91945e-09 -2.94777e-11) (5.2828e-09 -4.46028e-09 2.05853e-10) (6.6752e-09 -5.72399e-09 5.62292e-13) (8.26993e-09 -7.43738e-09 -5.09829e-10) (9.59507e-09 -8.65575e-09 1.87266e-11) (1.03192e-08 -9.35311e-09 -1.50035e-10) (1.13628e-08 -9.64592e-09 6.93102e-10) (1.19557e-08 -1.03499e-08 4.86845e-10) (1.16826e-08 -1.0015e-08 -3.48255e-10)
950           (9.80599e-11 -7.53943e-11 -3.11662e-11) (1.43698e-09 -1.61704e-09 -4.6272e-10) (3.28256e-09 -3.17074e-09 -5.10968e-10) (5.06564e-09 -4.60409e-09 -4.44494e-10) (6.82765e-09 -6.13899e-09 -2.29739e-10) (8.23493e-09 -7.36302e-09 -7.0319e-10) (9.53138e-09 -8.49875e-09 -5.47594e-10) (1.04983e-08 -9.61051e-09 -3.07965e-10) (1.12648e-08 -9.94999e-09 -2.14653e-10) (1.17788e-08 -1.06032e-08 -2.28512e-10) (1.18969e-08 -1.01235e-08 1.08559e-10)
1000          (1.13509e-10 -9.97431e-12 -4.9433e-12) (1.60259e-09 -1.3237e-09 -5.33345e-10) (3.51641e-09 -2.81673e-09 -6.63947e-10) (4.98925e-09 -4.60569e-09 -5.77177e-10) (6.71511e-09 -6.09033e-09 -4.61619e-10) (8.24308e-09 -7.52079e-09 -3.68341e-10) (9.72408e-09 -8.54153e-09 -2.44297e-10) (1.06379e-08 -9.35761e-09 -5.81167e-10) (1.11531e-08 -9.96452e-09 -4.73763e-11) (1.19772e-08 -1.05592e-08 -6.46549e-10) (1.1974e-08 -1.0223e-08 -7.32635e-10)
1050          (6.29778e-11 -1.92645e-10 2.39514e-11) (1.52473e-09 -1.69212e-09 3.01745e-10) (3.47799e-09 -3.19947e-09 3.51457e-10) (5.09961e-09 -4.69129e-09 2.12034e-10) (6.7446e-09 -6.08172e-09 5.71224e-10) (8.19843e-09 -7.5799e-09 -3.34263e-10) (9.6596e-09 -8.67921e-09 3.27589e-11) (1.04854e-08 -9.37738e-09 -4.76739e-10) (1.11269e-08 -9.6389e-09 6.10708e-10) (1.20214e-08 -1.03413e-08 1.60605e-11) (1.18215e-08 -1.01659e-08 1.18184e-09)
1100          (8.19314e-11 -2.22038e-11 -8.40587e-12) (1.81377e-09 -1.37957e-09 -5.07565e-10) (3.67552e-09 -3.09997e-09 -3.80221e-10) (5.28967e-09 -4.77578e-09 -4.45442e-10) (6.87377e-09 -6.01174e-09 1.0223e-10) (8.44036e-09 -7.2322e-09 -2.02412e-10) (9.70999e-09 -8.42089e-09 3.85187e-11) (1.07892e-08 -9.57828e-09 1.35131e-10) (1.14765e-08 -1.00754e-08 6.2636e-10) (1.21491e-08 -1.06288e-08 -4.04378e-11) (1.21608e-08 -1.02314e-08 1.17523e-09)
1150          (1.12532e-10 -8.82593e-11 -5.32528e-11) (1.58697e-09 -1.44321e-09 -7.06314e-11) (3.61356e-09 -3.02384e-09 -1.10744e-10) (5.31603e-09 -4.70338e-09 4.36464e-10) (6.73825e-09 -6.09251e-09 7.66449e-11) (8.15553e-09 -7.26953e-09 -2.29046e-10) (9.66777e-09 -8.45485e-09 5.91241e-10) (1.05664e-08 -9.60502e-09 7.32196e-10) (1.11826e-08 -1.00625e-08 1.06671e-09) (1.18551e-08 -1.05587e-08 2.07395e-10) (1.18883e-08 -1.02456e-08 2.28497e-10)
1200          (1.08583e-10 -5.72321e-11 -1.22737e-11) (1.56582e-09 -1.51337e-09 1.29388e-10) (3.47093e-09 -3.19091e-09 -6.91147e-11) (5.45862e-09 -4.74406e-09 3.43081e-10) (6.84708e-09 -6.00898e-09 9.97164e-10) (8.22521e-09 -7.34786e-09 5.99505e-10) (9.83444e-09 -8.73739e-09 1.15441e-09) (1.0506e-08 -9.3569e-09 1.26286e-09) (1.12361e-08 -9.67939e-09 1.96995e-09) (1.22531e-08 -1.04496e-08 1.4989e-09) (1.21682e-08 -1.02718e-08 1.30513e-09)
1250          (1.78864e-10 -4.33083e-11 1.37074e-10) (1.49629e-09 -1.02201e-09 -2.6315e-10) (3.36724e-09 -2.94227e-09 1.22915e-10) (5.19204e-09 -4.75929e-09 7.80195e-11) (7.09145e-09 -6.19507e-09 3.77282e-10) (8.45685e-09 -7.44007e-09 3.28633e-10) (9.70802e-09 -8.63681e-09 -2.39484e-10) (1.05701e-08 -9.41917e-09 6.08492e-10) (1.14426e-08 -1.00704e-08 9.63886e-10) (1.2164e-08 -1.07049e-08 5.98779e-10) (1.17759e-08 -1.02157e-08 1.25595e-09)
1300          (9.23134e-11 -1.7151e-12 1.54969e-10) (1.58531e-09 -1.48431e-09 -1.00833e-10) (3.72465e-09 -3.15182e-09 -5.87899e-10) (5.40593e-09 -4.61379e-09 -1.49656e-09) (7.00446e-09 -6.26556e-09 -1.03763e-09) (8.37668e-09 -7.49928e-09 -1.44258e-09) (9.95012e-09 -8.64014e-09 -1.43121e-09) (1.07686e-08 -9.10279e-09 -1.86567e-09) (1.14897e-08 -9.95206e-09 -1.81338e-09) (1.21578e-08 -1.07212e-08 -1.96615e-09) (1.21926e-08 -1.0289e-08 -2.60025e-09)
1350          (5.29874e-11 -6.07733e-11 -1.89336e-10) (1.4664e-09 -1.36466e-09 -5.59779e-11) (3.28619e-09 -3.23368e-09 -5.556e-11) (5.14133e-09 -4.45822e-09 9.37947e-10) (6.74695e-09 -5.75224e-09 8.06356e-10) (8.29017e-09 -7.59081e-09 -2.43525e-10) (9.85022e-09 -8.71801e-09 7.51041e-10) (1.0854e-08 -9.44783e-09 6.42804e-10) (1.15366e-08 -1.00385e-08 4.48359e-10) (1.2143e-08 -1.06573e-08 1.0957e-10) (1.19615e-08 -1.04127e-08 6.139e-10)
1400          (3.63764e-11 -1.17323e-10 2.8069e-11) (1.50724e-09 -1.66741e-09 -1.40622e-10) (3.5187e-09 -3.18774e-09 -4.25233e-10) (5.26649e-09 -4.973e-09 -3.68699e-11) (7.10689e-09 -6.1559e-09 1.55356e-10) (8.58931e-09 -7.45189e-09 2.78415e-10) (9.7135e-09 -8.45219e-09 1.13274e-09) (1.039e-08 -9.56191e-09 6.62446e-10) (1.11676e-08 -1.00835e-08 6.79321e-10) (1.19337e-08 -1.06023e-08 5.52831e-10) (1.20973e-08 -1.03864e-08 5.0762e-10)
1450          (1.99152e-10 -7.83323e-11 -1.31802e-10) (1.82244e-09 -1.41809e-09 2.23035e-10) (3.409e-09 -2.87774e-09 1.41995e-10) (5.23015e-09 -4.49515e-09 -3.92469e-10) (6.88627e-09 -6.06548e-09 3.63849e-10) (8.8484e-09 -7.46101e-09 -6.83011e-10) (1.00516e-08 -8.94713e-09 -7.03778e-10) (1.0718e-08 -9.3608e-09 -1.34524e-10) (1.14234e-08 -9.92589e-09 2.51313e-11) (1.21689e-08 -1.04588e-08 -6.77138e-10) (1.22488e-08 -1.03336e-08 -1.41084e-09)
1500          (1.08041e-10 -1.48461e-10 -2.80823e-11) (1.56787e-09 -1.47074e-09 1.0325e-10) (3.42792e-09 -3.26299e-09 -3.99378e-10) (5.39223e-09 -4.88264e-09 -1.19355e-11) (6.98781e-09 -6.11296e-09 6.27441e-10) (8.56574e-09 -7.35729e-09 -1.5066e-10) (9.65696e-09 -8.86721e-09 4.03405e-10) (1.06248e-08 -9.58267e-09 -5.61831e-11) (1.15485e-08 -1.01874e-08 4.39577e-10) (1.25161e-08 -1.06802e-08 4.13914e-10) (1.23694e-08 -1.02247e-08 5.87281e-10)
1550          (1.69132e-10 8.30754e-12 9.83512e-11) (1.89387e-09 -1.31452e-09 -8.52463e-11) (3.59896e-09 -3.06382e-09 8.34849e-11) (5.23925e-09 -4.8122e-09 1.58126e-10) (7.11238e-09 -6.23001e-09 -2.07677e-10) (8.7309e-09 -7.66795e-09 -5.16236e-10) (9.96204e-09 -8.67445e-09 -2.07067e-10) (1.07415e-08 -9.46992e-09 -6.45469e-10) (1.14409e-08 -1.03224e-08 -3.85709e-10) (1.2557e-08 -1.09369e-08 -1.04489e-09) (1.21663e-08 -1.04776e-08 -1.74934e-09)
1600          (1.34742e-10 -1.42355e-10 -9.61606e-11) (1.69396e-09 -1.38831e-09 4.506e-11) (3.39657e-09 -3.05202e-09 5.83745e-10) (5.26272e-09 -4.72971e-09 2.94681e-10) (7.0804e-09 -6.1573e-09 8.22282e-10) (8.35951e-09 -7.56087e-09 3.19677e-11) (9.92055e-09 -8.29172e-09 -1.62996e-11) (1.08184e-08 -9.27817e-09 8.90505e-10) (1.15161e-08 -9.8746e-09 1.68702e-09) (1.21504e-08 -1.08494e-08 7.49082e-10) (1.19074e-08 -1.03597e-08 6.40751e-10)
1650          (7.07326e-11 -1.49415e-10 9.40379e-11) (1.89215e-09 -1.54804e-09 1.96974e-10) (3.65055e-09 -3.24647e-09 3.79864e-10) (5.41768e-09 -4.75684e-09 9.64131e-11) (6.94396e-09 -6.07963e-09 2.93431e-11) (8.50157e-09 -7.55232e-09 -4.56998e-10) (9.73393e-09 -8.66935e-09 -8.19543e-10) (1.06999e-08 -9.48535e-09 1.50961e-10) (1.14364e-08 -1.01901e-08 -1.00377e-10) (1.21688e-08 -1.07203e-08 -5.83374e-10) (1.20764e-08 -1.01054e-08 6.78839e-11)
1700          (1.67052e-10 -4.72118e-11 -6.81473e-11) (1.70083e-09 -1.42349e-09 -1.78405e-10) (3.62145e-09 -3.0633e-09 -1.08783e-10) (5.26574e-09 -4.75902e-09 8.29163e-10) (6.96904e-09 -6.18891e-09 7.67796e-10) (8.55893e-09 -7.58797e-09 3.00793e-10) (9.68084e-09 -8.55747e-09 1.03071e-09) (1.0486e-08 -9.31198e-09 1.13566e-09) (1.13277e-08 -9.88905e-09 1.44388e-09) (1.22213e-08 -1.05519e-08 7.47322e-10) (1.22175e-08 -1.02901e-08 1.77237e-09)
1750          (2.14012e-10 -1.45573e-10 -1.13353e-10) (1.74225e-09 -1.35902e-09 5.00761e-10) (3.55028e-09 -3.25081e-09 4.78558e-10) (5.30556e-09 -4.6481e-09 3.5829e-11) (6.94761e-09 -5.854e-09 8.55857e-10) (8.67553e-09 -7.52749e-09 1.29079e-09) (9.98796e-09 -8.86549e-09 1.73528e-09) (1.06594e-08 -9.66809e-09 1.4316e-09) (1.11718e-08 -1.00978e-08 1.52531e-09) (1.20672e-08 -1.05838e-08 1.56466e-09) (1.20668e-08 -1.02482e-08 3.32198e-09)
1800          (1.62353e-10 -2.47429e-11 3.70638e-11) (1.71861e-09 -1.21734e-09 -4.13234e-10) (3.58444e-09 -3.06632e-09 -5.01428e-10) (5.26387e-09 -4.81448e-09 3.93548e-10) (7.03461e-09 -5.95455e-09 3.78911e-10) (8.50291e-09 -7.4939e-09 -1.02367e-09) (9.83222e-09 -8.71489e-09 -9.00644e-10) (1.07967e-08 -9.29769e-09 -3.36697e-10) (1.14128e-08 -9.6503e-09 -4.91372e-10) (1.22009e-08 -1.04825e-08 -1.09857e-09) (1.22407e-08 -1.0396e-08 -1.60737e-09)
1850          (1.57144e-10 -2.81091e-11 -2.06746e-11) (1.59757e-09 -1.26494e-09 1.76473e-11) (3.52945e-09 -3.10791e-09 3.68572e-10) (5.08065e-09 -4.70901e-09 -3.274e-10) (6.92962e-09 -6.00681e-09 4.2244e-10) (8.53829e-09 -7.5915e-09 -9.11967e-10) (9.99017e-09 -8.84201e-09 -6.08185e-10) (1.06674e-08 -9.76912e-09 -8.69944e-10) (1.1422e-08 -1.03055e-08 5.20908e-11) (1.2428e-08 -1.07599e-08 -6.675e-10) (1.22918e-08 -1.0218e-08 -9.3819e-10)
1900          (1.49969e-10 -9.64878e-11 -1.1643e-11) (1.66114e-09 -1.43295e-09 1.73417e-10) (3.54112e-09 -3.0388e-09 1.61943e-10) (5.2877e-09 -4.59146e-09 1.02511e-10) (6.89643e-09 -6.1304e-09 5.75835e-10) (8.1188e-09 -7.62008e-09 4.69798e-10) (9.89237e-09 -8.78819e-09 7.2575e-10) (1.07474e-08 -9.54569e-09 3.88201e-10) (1.14404e-08 -1.00723e-08 6.14815e-10) (1.23781e-08 -1.10153e-08 2.46146e-10) (1.21858e-08 -1.04115e-08 -3.10639e-10)
1950          (9.68764e-11 -1.13432e-10 -7.75094e-11) (1.48061e-09 -1.343e-09 3.9517e-10) (3.66938e-09 -2.86427e-09 2.46952e-10) (5.44768e-09 -4.8007e-09 -1.20933e-11) (7.22941e-09 -6.29238e-09 9.72779e-10) (8.36281e-09 -7.68245e-09 8.27693e-10) (9.7336e-09 -8.96124e-09 7.51978e-10) (1.08768e-08 -9.38316e-09 1.04332e-09) (1.15422e-08 -9.99766e-09 8.45823e-10) (1.23031e-08 -1.07981e-08 1.29755e-10) (1.21389e-08 -1.04022e-08 -1.11836e-09)
2000          (6.82089e-11 -1.01034e-10 -1.66773e-10) (1.73295e-09 -1.68446e-09 -2.03052e-10) (3.5413e-09 -3.15456e-09 -1.33304e-11) (5.08612e-09 -4.62104e-09 -6.45607e-10) (6.96397e-09 -6.10589e-09 -3.14596e-10) (8.42311e-09 -7.56356e-09 -3.45127e-10) (9.85492e-09 -8.61638e-09 -3.87738e-10) (1.0591e-08 -9.28891e-09 -2.27113e-10) (1.14797e-08 -9.89075e-09 1.30927e-10) (1.22276e-08 -1.08796e-08 -7.64545e-10) (1.19967e-08 -1.0379e-08 -8.58252e-10)
2050          (2.06279e-10 -7.80605e-11 2.8746e-11) (1.79353e-09 -1.65446e-09 -4.77013e-10) (3.5832e-09 -3.03081e-09 -5.68677e-10) (5.26114e-09 -4.96376e-09 -5.06987e-10) (7.00162e-09 -6.29141e-09 -5.56264e-10) (8.28598e-09 -7.61434e-09 -5.87455e-10) (9.63224e-09 -8.63649e-09 -1.84365e-10) (1.07756e-08 -9.54038e-09 -3.97228e-10) (1.16188e-08 -9.90258e-09 2.86882e-11) (1.21597e-08 -1.0543e-08 -3.54578e-10) (1.21072e-08 -1.03246e-08 -2.03687e-10)
2100          (1.1005e-10 -1.76546e-10 3.04549e-11) (1.74059e-09 -1.63409e-09 -2.72303e-10) (3.28772e-09 -3.24169e-09 9.24784e-11) (5.25071e-09 -4.67236e-09 1.13115e-10) (6.87922e-09 -5.9995e-09 -1.90412e-10) (8.52154e-09 -7.68289e-09 -3.38321e-10) (9.95946e-09 -8.959e-09 -6.13704e-10) (1.04636e-08 -9.82823e-09 -1.51562e-10) (1.11881e-08 -1.03877e-08 4.93881e-10) (1.21971e-08 -1.05943e-08 3.76584e-10) (1.214e-08 -1.01913e-08 3.98945e-10)
2150          (1.20931e-10 1.4713e-11 3.68298e-11) (1.61253e-09 -1.73255e-09 2.97535e-10) (3.4251e-09 -3.18881e-09 3.19376e-10) (5.32338e-09 -4.67873e-09 9.70063e-11) (7.13252e-09 -6.30227e-09 1.20433e-11) (8.5221e-09 -7.59385e-09 -3.81489e-10) (9.95424e-09 -8.83527e-09 3.69585e-10) (1.09323e-08 -9.51991e-09 1.89191e-10) (1.17089e-08 -9.93915e-09 7.86778e-10) (1.2365e-08 -1.0713e-08 -9.29843e-11) (1.22558e-08 -1.04063e-08 -4.97007e-10)
2200          (1.05103e-10 -1.04845e-10 7.7162e-11) (1.53959e-09 -1.52608e-09 2.80033e-10) (3.385e-09 -3.20908e-09 -8.55849e-10) (5.21808e-09 -4.83008e-09 3.24825e-10) (6.82128e-09 -5.96467e-09 4.25385e-10) (8.58964e-09 -7.5141e-09 -5.08157e-10) (9.83664e-09 -8.71077e-09 -5.29812e-10) (1.06342e-08 -9.61238e-09 -9.08992e-10) (1.12718e-08 -9.87566e-09 -4.00572e-10) (1.21142e-08 -1.04194e-08 -1.00308e-09) (1.2346e-08 -1.0365e-08 -5.0335e-10)
2250          (7.64421e-11 -5.77894e-11 -1.98033e-10) (1.48572e-09 -1.64363e-09 -9.67297e-11) (3.64079e-09 -3.4506e-09 -2.49863e-10) (5.31201e-09 -4.9442e-09 -4.99062e-11) (7.03703e-09 -6.33492e-09 -1.12415e-10) (8.60334e-09 -7.57504e-09 -1.83315e-10) (9.90433e-09 -8.87833e-09 -2.17095e-10) (1.05377e-08 -9.62694e-09 -1.16301e-10) (1.11158e-08 -9.69225e-09 2.81717e-10) (1.22914e-08 -1.03802e-08 1.99882e-11) (1.24479e-08 -1.04515e-08 4.83929e-10)
2300          (1.17463e-10 -3.04286e-11 -1.45756e-10) (1.65006e-09 -1.61915e-09 -4.07985e-11) (3.4137e-09 -3.27578e-09 -7.0092e-11) (5.24307e-09 -4.73604e-09 -1.20856e-09) (6.83766e-09 -5.91776e-09 -7.52783e-10) (8.44421e-09 -7.48432e-09 -7.24569e-10) (9.91292e-09 -8.76898e-09 -4.67109e-10) (1.05891e-08 -9.49541e-09 -4.11781e-10) (1.14918e-08 -9.94377e-09 -3.52843e-12) (1.22432e-08 -1.04506e-08 -1.08067e-09) (1.21971e-08 -1.04038e-08 -1.23731e-10)
2350          (1.08514e-10 -3.29864e-11 -5.68251e-11) (1.62967e-09 -1.30765e-09 4.78405e-10) (3.60934e-09 -3.19873e-09 4.203e-10) (5.2225e-09 -4.69808e-09 8.57404e-10) (6.87179e-09 -6.1637e-09 7.19309e-10) (8.16092e-09 -7.36053e-09 6.09296e-10) (9.85714e-09 -8.62775e-09 1.34549e-09) (1.08319e-08 -9.74178e-09 1.21216e-09) (1.14807e-08 -1.01108e-08 2.01322e-09) (1.22222e-08 -1.04251e-08 1.35719e-09) (1.22185e-08 -1.01677e-08 1.97418e-09)
2400          (1.16684e-10 -5.96907e-11 -1.3439e-10) (1.73626e-09 -1.48072e-09 -1.69086e-10) (3.54605e-09 -3.11171e-09 5.55348e-11) (5.39868e-09 -4.55692e-09 -1.06969e-11) (7.16682e-09 -6.18206e-09 1.85391e-10) (8.69409e-09 -7.61851e-09 -5.59319e-10) (9.97837e-09 -8.67206e-09 -4.5858e-10) (1.06594e-08 -9.77955e-09 -1.08335e-09) (1.14584e-08 -9.76526e-09 -2.82962e-10) (1.25121e-08 -1.05106e-08 -1.3423e-09) (1.22887e-08 -1.04171e-08 -1.87272e-09)
2450          (1.45862e-10 -7.15566e-11 -1.8032e-11) (1.60708e-09 -1.67534e-09 3.27784e-10) (3.59509e-09 -3.04682e-09 -1.05736e-09) (5.17141e-09 -4.71232e-09 -2.34891e-10) (6.88036e-09 -6.05314e-09 -7.89025e-10) (8.2769e-09 -7.67084e-09 -6.74851e-10) (9.83375e-09 -8.58631e-09 -6.72094e-10) (1.07326e-08 -9.35892e-09 -9.20479e-10) (1.13807e-08 -9.94284e-09 -1.18065e-09) (1.26446e-08 -1.06092e-08 -1.22588e-09) (1.24816e-08 -1.03342e-08 -1.08269e-09)
2500          (1.44847e-10 8.92443e-13 -1.10663e-10) (1.74029e-09 -1.58476e-09 2.0359e-10) (3.40156e-09 -3.31854e-09 -5.72408e-10) (5.26209e-09 -4.84605e-09 -1.23189e-10) (7.22954e-09 -6.27551e-09 5.68263e-10) (8.69817e-09 -7.56687e-09 -2.02136e-10) (1.00924e-08 -8.82933e-09 -1.09751e-11) (1.08353e-08 -9.64992e-09 6.42772e-11) (1.14384e-08 -1.00678e-08 9.31285e-11) (1.22436e-08 -1.04621e-08 1.2254e-10) (1.2143e-08 -1.01487e-08 -4.44414e-10)
2550          (1.70394e-10 -1.31002e-10 9.29192e-11) (1.61523e-09 -1.27933e-09 -2.78078e-11) (3.50164e-09 -3.01638e-09 3.08271e-10) (5.29553e-09 -4.62463e-09 -3.96351e-10) (6.85141e-09 -5.87509e-09 4.12122e-10) (8.13197e-09 -7.54176e-09 4.76141e-10) (9.90052e-09 -8.66531e-09 5.49113e-10) (1.07759e-08 -9.57316e-09 -1.91795e-10) (1.14661e-08 -9.90156e-09 5.25739e-10) (1.24212e-08 -1.06717e-08 5.30821e-10) (1.24952e-08 -1.03131e-08 7.4153e-10)
2600          (2.58098e-11 -1.07946e-10 1.43407e-10) (1.65888e-09 -1.54211e-09 -2.00226e-10) (3.56618e-09 -3.06948e-09 -5.31978e-10) (5.51898e-09 -4.89279e-09 3.2952e-10) (7.15748e-09 -6.24919e-09 7.23381e-10) (8.53091e-09 -7.70047e-09 3.78126e-10) (9.85641e-09 -8.39033e-09 3.50139e-10) (1.09129e-08 -9.4411e-09 7.05993e-10) (1.13188e-08 -1.02262e-08 6.73979e-10) (1.20485e-08 -1.06982e-08 -6.45579e-10) (1.22142e-08 -1.03644e-08 6.18659e-10)
2650          (6.26841e-11 -7.91337e-11 -1.0059e-11) (1.65878e-09 -1.5872e-09 3.6167e-11) (3.60427e-09 -3.15063e-09 -1.76208e-10) (5.16059e-09 -4.88979e-09 -1.13283e-10) (6.91759e-09 -6.17407e-09 3.32496e-10) (8.77616e-09 -7.34939e-09 -3.23907e-10) (1.01041e-08 -8.79133e-09 5.97128e-10) (1.08616e-08 -9.52404e-09 3.38772e-10) (1.15267e-08 -9.98267e-09 3.03411e-10) (1.22353e-08 -1.06252e-08 3.08189e-10) (1.20343e-08 -1.02399e-08 6.14378e-10)
2700          (1.23871e-10 -9.78434e-12 -2.33102e-11) (1.47122e-09 -1.29171e-09 3.04773e-11) (3.25726e-09 -3.16357e-09 -9.41584e-10) (5.22998e-09 -4.91433e-09 -1.72977e-10) (6.79276e-09 -6.07798e-09 1.84512e-10) (8.3317e-09 -7.50277e-09 2.42441e-10) (9.76982e-09 -8.51263e-09 3.59996e-10) (1.06462e-08 -9.31178e-09 -1.47059e-10) (1.15108e-08 -1.00349e-08 -1.68749e-10) (1.25526e-08 -1.06992e-08 -1.08195e-09) (1.21962e-08 -1.03407e-08 -9.01013e-10)
2750          (1.46764e-10 3.62549e-13 2.40845e-11) (1.6154e-09 -1.26304e-09 -6.56774e-11) (3.26441e-09 -3.17769e-09 -9.61727e-11) (5.1034e-09 -4.87339e-09 -5.92179e-10) (6.77477e-09 -6.11209e-09 3.32706e-11) (8.46752e-09 -7.62282e-09 -2.8329e-10) (9.95043e-09 -8.5654e-09 -3.64913e-10) (1.06553e-08 -9.68247e-09 -7.30324e-10) (1.146e-08 -1.00591e-08 -8.987e-10) (1.21772e-08 -1.08524e-08 -3.53663e-10) (1.21279e-08 -1.04531e-08 -1.69106e-09)
2800          (7.3874e-11 2.5598e-11 1.13506e-10) (1.35694e-09 -1.35412e-09 -2.72983e-10) (3.52038e-09 -3.12779e-09 -3.65161e-10) (5.08126e-09 -4.47724e-09 -8.85073e-11) (6.82395e-09 -6.08429e-09 -3.90611e-10) (8.84693e-09 -7.73144e-09 -3.05952e-10) (9.92329e-09 -8.94068e-09 3.2907e-10) (1.06599e-08 -9.74934e-09 3.83936e-11) (1.12495e-08 -1.01293e-08 3.36006e-10) (1.21669e-08 -1.07361e-08 -8.99952e-10) (1.20698e-08 -1.02633e-08 -9.38495e-10)
2850          (2.19161e-10 -8.54475e-11 -1.22767e-11) (1.45058e-09 -1.59228e-09 1.82548e-11) (3.3698e-09 -3.16848e-09 -2.91482e-10) (5.31378e-09 -4.56999e-09 -3.09419e-10) (7.23481e-09 -6.09995e-09 -1.13065e-10) (8.64453e-09 -7.76364e-09 -1.00058e-09) (9.89069e-09 -8.81579e-09 -3.40844e-10) (1.08472e-08 -9.69678e-09 -1.0078e-09) (1.17188e-08 -9.9804e-09 -1.36548e-10) (1.2515e-08 -1.06607e-08 -7.65831e-10) (1.2336e-08 -1.03706e-08 -6.34271e-10)
2900          (1.28164e-10 -8.09666e-11 -1.2073e-10) (1.76889e-09 -1.58244e-09 4.96757e-11) (3.53816e-09 -3.32553e-09 -2.8278e-10) (5.33701e-09 -4.86648e-09 -1.31955e-09) (7.01349e-09 -6.04159e-09 -1.93753e-10) (8.4424e-09 -7.58849e-09 -1.41831e-10) (9.97731e-09 -8.73401e-09 4.67548e-10) (1.07926e-08 -9.59466e-09 -2.37759e-11) (1.1282e-08 -9.82495e-09 4.14704e-11) (1.20724e-08 -1.05428e-08 -6.00254e-10) (1.21798e-08 -1.05678e-08 2.07322e-10)
2950          (1.86059e-10 -1.00243e-10 7.17479e-11) (1.91539e-09 -1.46336e-09 -1.43934e-10) (3.64264e-09 -3.34487e-09 -1.21328e-09) (5.21483e-09 -4.80612e-09 -1.25804e-09) (6.97522e-09 -6.3272e-09 -1.27061e-09) (8.50759e-09 -7.77031e-09 -1.58988e-09) (9.99586e-09 -8.86744e-09 -1.25654e-09) (1.08158e-08 -9.5839e-09 -9.41659e-10) (1.14045e-08 -9.95102e-09 -6.09462e-10) (1.21394e-08 -1.06021e-08 -1.60984e-09) (1.23616e-08 -1.02962e-08 -2.2502e-09)
3000          (1.30801e-10 -4.04005e-11 -6.12219e-11) (1.85107e-09 -1.34278e-09 1.19937e-10) (3.63564e-09 -3.04835e-09 5.77318e-11) (5.22373e-09 -4.70549e-09 5.99581e-10) (6.91163e-09 -5.9724e-09 9.43903e-10) (8.53786e-09 -7.66518e-09 2.53774e-10) (1.00101e-08 -8.79109e-09 7.45573e-10) (1.09602e-08 -9.4688e-09 1.24669e-09) (1.17396e-08 -1.03479e-08 9.46015e-10) (1.24066e-08 -1.06706e-08 9.37299e-10) (1.23571e-08 -1.0505e-08 1.63954e-09)
3050          (8.782e-11 -1.27805e-10 7.10817e-11) (1.59285e-09 -1.51784e-09 3.17339e-10) (3.36264e-09 -3.26473e-09 -6.55374e-10) (5.10619e-09 -4.76783e-09 -2.94143e-10) (7.02276e-09 -6.19476e-09 6.89352e-10) (8.52103e-09 -7.71423e-09 9.35544e-13) (9.97374e-09 -8.45879e-09 7.51641e-10) (1.07193e-08 -9.4034e-09 1.26468e-09) (1.14151e-08 -9.93706e-09 1.00539e-09) (1.24335e-08 -1.06616e-08 8.03909e-10) (1.19951e-08 -1.03587e-08 2.09918e-09)
3100          (1.10945e-10 -3.82985e-11 8.9532e-11) (1.76986e-09 -1.50079e-09 5.16832e-10) (3.48767e-09 -3.09421e-09 -3.86995e-11) (5.20566e-09 -4.76177e-09 2.55046e-10) (6.93083e-09 -6.01784e-09 7.6792e-10) (8.53802e-09 -7.43366e-09 5.3351e-10) (9.82137e-09 -8.83865e-09 8.51576e-10) (1.06592e-08 -9.46444e-09 3.6388e-10) (1.14194e-08 -9.91364e-09 5.06718e-10) (1.25305e-08 -1.0392e-08 2.28021e-10) (1.21057e-08 -1.02766e-08 7.75406e-10)
3150          (-3.26714e-11 -3.73568e-11 -7.34577e-11) (1.38505e-09 -1.30957e-09 -2.71851e-10) (3.50177e-09 -2.92332e-09 -3.43982e-10) (5.39282e-09 -4.88151e-09 3.29855e-10) (6.9934e-09 -6.22324e-09 5.90318e-10) (8.44521e-09 -7.42533e-09 -2.47198e-10) (9.80543e-09 -8.57914e-09 -1.98307e-10) (1.06092e-08 -9.56977e-09 -2.78358e-10) (1.13726e-08 -1.00921e-08 -1.15665e-10) (1.21468e-08 -1.04576e-08 1.73831e-10) (1.20444e-08 -1.04955e-08 1.19665e-09)
3200          (1.65268e-10 -5.84691e-11 -6.98625e-11) (1.6475e-09 -1.23413e-09 -2.10896e-10) (3.33691e-09 -2.94662e-09 -6.66904e-10) (5.07813e-09 -4.81665e-09 -8.08974e-10) (6.75039e-09 -6.06746e-09 -4.23964e-10) (8.5372e-09 -7.31026e-09 -8.82802e-10) (9.72068e-09 -8.53445e-09 -1.6378e-10) (1.06316e-08 -9.33025e-09 -4.72156e-10) (1.16867e-08 -9.93501e-09 -1.87167e-10) (1.22866e-08 -1.07391e-08 -1.14549e-09) (1.21429e-08 -1.06139e-08 -5.23278e-10)
3250          (1.20401e-10 -6.86581e-11 1.98436e-12) (1.77095e-09 -1.58818e-09 1.93684e-10) (3.55515e-09 -3.1663e-09 3.37195e-10) (5.26801e-09 -4.52925e-09 3.51569e-11) (6.94594e-09 -6.06343e-09 4.91273e-10) (8.27017e-09 -7.37977e-09 2.16758e-10) (9.63866e-09 -8.72622e-09 -5.63146e-11) (1.05418e-08 -9.24181e-09 3.52318e-10) (1.12099e-08 -1.00479e-08 6.13565e-10) (1.19738e-08 -1.04804e-08 -3.42876e-10) (1.20553e-08 -1.03141e-08 3.17924e-10)
3300          (4.40645e-11 -1.11688e-10 -2.66759e-11) (1.58681e-09 -1.63024e-09 1.09149e-10) (3.60377e-09 -3.02287e-09 -4.3529e-10) (5.32233e-09 -4.55308e-09 4.8304e-12) (6.79607e-09 -6.15772e-09 5.52329e-10) (8.60335e-09 -7.41746e-09 -6.65979e-10) (9.75479e-09 -8.82719e-09 4.53113e-10) (1.08234e-08 -9.49673e-09 6.89653e-10) (1.15637e-08 -1.01172e-08 3.93493e-10) (1.23148e-08 -1.04754e-08 -1.96723e-10) (1.20235e-08 -1.00927e-08 -2.39801e-10)