# Probe 0 (0.0015 0.0015 0)
# Probe 1 (0.0015 0.0015 0.002)
# Probe 2 (0.0015 0.0015 0.004)
# Probe 3 (0.0015 0.0015 0.006)
# Probe 4 (0.0015 0.0015 0.008)
# Probe 5 (0.0015 0.0015 0.01)
# Probe 6 (0.0015 0.0015 0.012)
# Probe 7 (0.0015 0.0015 0.014)
# Probe 8 (0.0015 0.0015 0.016)
# Probe 9 (0.0015 0.0015 0.018)
# Probe 10 (0.0015 0.0015 0.02)
# Time        0             1             2             3             4             5             6             7             8             9             10           
50            (-73.8306 -73.8306 -1.72332e+07) (-39.973 -39.973 -1.69536e+07) (6.91338 6.91338 -1.34805e+07) (31.6896 31.6896 -9.51977e+06) (33.7469 33.7469 -6.20317e+06) (29.5801 29.5801 -4.06798e+06) (21.8543 21.8543 -3.09747e+06) (16.8259 16.8259 -3.09664e+06) (7.22711 7.22711 -3.89468e+06) (-2.96592 -2.96592 -5.3435e+06) (-8.08099 -8.08099 -7.1919e+06)
100           (-47.5548 -47.5548 -1.23041e+07) (-51.205 -51.205 -1.32979e+07) (-36.5503 -36.5503 -1.21239e+07) (-18.3462 -18.3462 -1.05445e+07) (4.94428 4.94428 -8.76149e+06) (21.67 21.67 -7.08654e+06) (27.1244 27.1244 -5.81851e+06) (24.1277 24.1277 -5.12113e+06) (19.0473 19.0473 -4.99314e+06) (6.23177 6.23177 -5.30737e+06) (-3.73812 -3.73812 -5.83044e+06)
150           (-98.4569 -98.4569 -1.03587e+07) (-46.4552 -46.4552 -1.16445e+07) (-39.5194 -39.5194 -1.10271e+07) (-15.778 -15.778 -1.02122e+07) (10.1074 10.1074 -9.24519e+06) (33.5532 33.5532 -8.21314e+06) (48.2434 48.2434 -7.23757e+06) (49.0207 49.0207 -6.445e+06) (38.8996 38.8996 -5.92149e+06) (26.8137 26.8137 -5.68073e+06) (-3.38972 -3.38972 -5.65221e+06)
200           (-19.8675 -19.8675 -9.36645e+06) (-8.31547 -8.31547 -1.0767e+07) (-13.1267 -13.1267 -1.03592e+07) (-7.53705 -7.53705 -9.84221e+06) (-3.16795 -3.16795 -9.22942e+06) (1.49589 1.49589 -8.54883e+06) (5.86067 5.86067 -7.84467e+06) (8.58281 8.58281 -7.1753e+06) (10.4543 10.4543 -6.60237e+06) (10.3639 10.3639 -6.17579e+06) (6.05502 6.05502 -5.91888e+06)
250           (4.74296 4.74296 -8.78237e+06) (3.87334 3.87334 -1.02388e+07) (5.14118 5.14118 -9.92821e+06) (4.93323 4.93323 -9.55169e+06) (4.11592 4.11592 -9.11308e+06) (2.59545 2.59545 -8.62272e+06) (0.422691 0.422691 -8.09846e+06) (-2.08636 -2.08636 -7.56724e+06) (-4.21309 -4.21309 -7.0639e+06) (-3.72424 -3.72424 -6.6303e+06) (0.34987 0.34987 -6.31563e+06)
300           (2.53001 2.53001 -8.40446e+06) (2.04162 2.04162 -9.89173e+06) (2.95242 2.95242 -9.63398e+06) (2.99274 2.99274 -9.33414e+06) (2.77672 2.77672 -8.99325e+06) (2.24858 2.24858 -8.61568e+06) (1.37986 1.37986 -8.2098e+06) (0.184877 0.184877 -7.78977e+06) (-1.23198 -1.23198 -7.37597e+06) (-1.63964 -1.63964 -6.99793e+06) (-2.16648 -2.16648 -6.70131e+06)
350           (0.390804 0.390804 -8.14474e+06) (0.549378 0.549378 -9.65129e+06) (1.29646 1.29646 -9.42571e+06) (1.49011 1.49011 -9.17297e+06) (1.59161 1.59161 -8.89326e+06) (1.56561 1.5656 -8.58877e+06) (1.37584 1.37584 -8.2641e+06) (0.975986 0.975986 -7.92781e+06) (0.302464 0.302464 -7.59281e+06) (0.0373445 0.0373445 -7.27959e+06) (-1.24153 -1.24153 -7.02365e+06)
400           (22.5259 22.5259 -7.96031e+06) (11.55 11.55 -9.4798e+06) (10.6189 10.6189 -9.27556e+06) (8.96297 8.96297 -9.05423e+06) (6.67844 6.67844 -8.81578e+06) (3.72044 3.72044 -8.56152e+06) (0.131896 0.131896 -8.2943e+06) (-3.98669 -3.98669 -8.01988e+06) (-8.47177 -8.47177 -7.74694e+06) (-12.6175 -12.6175 -7.48982e+06) (-30.1142 -30.1142 -7.27462e+06)
450           (22.1571 22.1571 -7.82736e+06) (9.2215 9.2215 -9.356e+06) (7.25348 7.25348 -9.16669e+06) (4.88956 4.88956 -8.96737e+06) (2.18566 2.18566 -8.75797e+06) (-0.892375 -0.892375 -8.53935e+06) (-4.23671 -4.23671 -8.31343e+06) (-7.71823 -7.71823 -8.08429e+06) (-11.3778 -11.3778 -7.85798e+06) (-14.3218 -14.3218 -7.64463e+06) (-28.6574 -28.6574 -7.46302e+06)
500           (21.659 21.659 -7.73099e+06) (9.06793 9.06793 -9.26623e+06) (4.81414 4.81414 -9.08765e+06) (-0.265264 -0.265264 -8.90411e+06) (-5.4913 -5.4913 -8.71557e+06) (-9.74874 -9.74874 -8.52262e+06) (-12.0691 -12.0691 -8.32657e+06) (-12.0194 -12.0194 -8.1304e+06) (-9.95624 -9.95624 -7.93837e+06) (-6.77918 -6.77918 -7.75768e+06) (-15.5894 -15.5894 -7.60175e+06)
550           (16.2004 16.2004 -7.66108e+06) (6.76987 6.76987 -9.20109e+06) (3.27628 3.27628 -9.03028e+06) (-0.706555 -0.706555 -8.85818e+06) (-4.48871 -4.48871 -8.68473e+06) (-7.26152 -7.26152 -8.51036e+06) (-8.53434 -8.53434 -8.33594e+06) (-8.27529 -8.27529 -8.16368e+06) (-6.89699 -6.89699 -7.99659e+06) (-4.97243 -4.97243 -7.83979e+06) (-11.8101 -11.8101 -7.70284e+06)
600           (11.7766 11.7766 -7.61041e+06) (4.84755 4.84755 -9.1539e+06) (2.28847 2.28847 -8.98873e+06) (-0.612224 -0.612224 -8.82493e+06) (-3.34242 -3.34242 -8.66243e+06) (-5.31834 -5.31834 -8.50151e+06) (-6.20229 -6.20229 -8.34274e+06) (-5.99215 -5.99215 -8.18778e+06) (-4.99643 -4.99643 -8.03873e+06) (-3.62382 -3.62382 -7.89923e+06) (-8.62153 -8.62153 -7.77609e+06)
650           (8.52478 8.52478 -7.57375e+06) (3.43159 3.43159 -9.11977e+06) (1.58241 1.58241 -8.95869e+06) (-0.509973 -0.509973 -8.80091e+06) (-2.47707 -2.47707 -8.64634e+06) (-3.89712 -3.89712 -8.49516e+06) (-4.52726 -4.52726 -8.3477e+06) (-4.36734 -4.36734 -8.20523e+06) (-3.64088 -3.64088 -8.06918e+06) (-2.64329 -2.64329 -7.94215e+06) (-6.26604 -6.26604 -7.82899e+06)
700           (80.5366 80.5366 -7.54736e+06) (48.4846 48.4846 -9.09502e+06) (38.6919 38.6919 -8.9371e+06) (35.4321 35.4321 -8.78354e+06) (21.4504 21.4504 -8.63477e+06) (8.19484 8.19484 -8.49059e+06) (-9.41531 -9.41531 -8.35128e+06) (-30.9842 -30.9842 -8.21782e+06) (-52.0821 -52.0821 -8.09113e+06) (-66.9452 -66.9452 -7.97308e+06) (-100.079 -100.079 -7.8671e+06)
750           (-38.7714 -38.7714 -7.52829e+06) (4.37998 4.37998 -9.07711e+06) (-12.8046 -12.8046 -8.92174e+06) (0.948126 0.948126 -8.77113e+06) (-3.68373 -3.68373 -8.62662e+06) (2.59215 2.59215 -8.4875e+06) (7.89782 7.89782 -8.35406e+06) (13.5236 13.5236 -8.22709e+06) (22.1908 22.1908 -8.10706e+06) (28.9577 28.9577 -7.99547e+06) (63.973 63.973 -7.8946e+06)
800           (-6.09909 -6.09909 -7.51457e+06) (-11.9649 -11.9649 -9.06444e+06) (-25.0119 -25.0119 -8.91036e+06) (-17.4464 -17.4464 -8.76216e+06) (-18.4739 -18.4739 -8.62052e+06) (-14.9039 -14.9039 -8.48509e+06) (-10.2892 -10.2892 -8.35586e+06) (-7.99378 -7.99378 -8.23355e+06) (-3.23335 -3.23335 -8.11838e+06) (-1.38077 -1.38077 -8.01144e+06) (-24.7951 -24.7951 -7.91427e+06)
850           (-7.9187 -7.9187 -7.50483e+06) (18.0507 18.0507 -9.05516e+06) (-3.47132 -3.47132 -8.90245e+06) (11.0889 11.0889 -8.75568e+06) (6.01148 6.01148 -8.61624e+06) (8.63217 8.63217 -8.48336e+06) (7.89194 7.89194 -8.35716e+06) (6.98286 6.98286 -8.23816e+06) (6.07782 6.07782 -8.12647e+06) (3.8875 3.8875 -8.02283e+06) (9.95584 9.95584 -7.92838e+06)
900           (26.8385 26.8385 -7.49803e+06) (22.0839 22.0839 -9.04905e+06) (6.51787 6.51787 -8.89674e+06) (6.77051 6.77051 -8.75128e+06) (-2.45299 -2.45299 -8.61323e+06) (-5.50201 -5.50201 -8.48211e+06) (-14.314 -14.314 -8.35808e+06) (-15.5196 -15.5196 -8.24129e+06) (-22.0853 -22.0853 -8.13212e+06) (-21.3012 -21.3012 -8.03075e+06) (-33.063 -33.063 -7.93821e+06)
950           (4.47211 4.47211 -7.493e+06) (-4.26313 -4.26313 -9.04459e+06) (-6.58198 -6.58198 -8.89251e+06) (-15.1552 -15.1552 -8.74812e+06) (-11.7922 -11.7922 -8.61094e+06) (-16.2667 -16.2667 -8.48127e+06) (-17.521 -17.521 -8.35872e+06) (-11.6123 -11.6123 -8.2436e+06) (-14.9694 -14.9694 -8.13626e+06) (-10.0049 -10.0049 -8.03653e+06) (-10.4697 -10.4697 -7.94542e+06)
1000          (0.546262 0.546262 -7.48948e+06) (2.82208 2.82208 -9.04126e+06) (1.98879 1.98879 -8.88966e+06) (4.20048 4.20048 -8.74569e+06) (2.50851 2.50851 -8.6094e+06) (3.57878 3.57878 -8.48058e+06) (2.65806 2.65806 -8.35912e+06) (2.166 2.166 -8.24528e+06) (0.114736 0.114736 -8.13912e+06) (1.0546 1.0546 -8.04068e+06) (-1.41173 -1.41173 -7.95058e+06)
1050          (0.717392 0.717392 -7.48705e+06) (7.88884 7.88884 -9.03905e+06) (8.78579 8.78579 -8.88765e+06) (9.08571 9.08571 -8.74415e+06) (10.6575 10.6575 -8.60833e+06) (11.2533 11.2533 -8.48017e+06) (7.44134 7.44134 -8.35948e+06) (11.308 11.308 -8.24641e+06) (4.05467 4.05467 -8.14117e+06) (0.855552 0.855552 -8.04355e+06) (5.85186 5.85186 -7.95403e+06)
1100          (-2.53951 -2.53951 -7.48547e+06) (-2.10151 -2.10151 -9.03755e+06) (-2.20978 -2.20978 -8.88634e+06) (-2.32959 -2.32959 -8.74307e+06) (-1.18852 -1.18852 -8.6076e+06) (-0.0209388 -0.0209391 -8.47987e+06) (-0.192115 -0.192115 -8.35963e+06) (3.75521 3.75521 -8.24716e+06) (-0.959987 -0.959987 -8.14247e+06) (6.4445 6.4445 -8.04538e+06) (-0.108735 -0.108734 -7.95642e+06)
1150          (1.40317 1.40317 -7.48424e+06) (6.03157 6.03157 -9.03641e+06) (6.84864 6.84864 -8.88535e+06) (5.47954 5.47954 -8.7423e+06) (8.07698 8.07698 -8.60707e+06) (5.67826 5.67826 -8.4797e+06) (4.54872 4.54872 -8.35985e+06) (6.88524 6.88524 -8.24777e+06) (-9.3563 -9.3563 -8.14371e+06) (10.6252 10.6252 -8.04678e+06) (-2.99465 -2.99465 -7.95831e+06)
1200          (-17.601 -17.601 -7.4834e+06) (-9.7547 -9.7547 -9.03562e+06) (-11.066 -11.066 -8.88464e+06) (-8.15858 -8.15858 -8.74169e+06) (-6.81024 -6.81024 -8.60666e+06) (-4.14636 -4.14636 -8.47948e+06) (3.21712 3.21712 -8.35986e+06) (-0.828422 -0.828422 -8.24824e+06) (12.3754 12.3754 -8.14422e+06) (18.2543 18.2543 -8.0479e+06) (18.5224 18.5224 -7.95961e+06)
1250          (-19.4059 -19.4059 -7.48292e+06) (-17.9783 -17.9783 -9.03519e+06) (-21.0594 -21.0594 -8.88427e+06) (-17.5115 -17.5115 -8.7414e+06) (-14.3447 -14.3447 -8.60648e+06) (-9.40837 -9.40837 -8.47942e+06) (-1.96914 -1.96914 -8.35998e+06) (-1.04537 -1.04537 -8.24849e+06) (10.0174 10.0174 -8.14467e+06) (13.7732 13.7732 -8.04852e+06) (3.3743 3.3743 -7.96035e+06)
1300          (5.62611 5.62611 -7.48265e+06) (6.24066 6.24066 -9.03491e+06) (13.8489 13.8489 -8.88402e+06) (9.51574 9.51574 -8.74118e+06) (7.93758 7.93758 -8.60632e+06) (6.27293 6.27293 -8.47932e+06) (1.81909 1.81909 -8.35995e+06) (-6.67951 -6.67951 -8.24861e+06) (-16.3692 -16.3692 -8.14486e+06) (7.28159 7.28159 -8.04875e+06) (1.9113 1.9113 -7.96077e+06)
1350          (17.7729 17.7729 -7.48249e+06) (16.3972 16.3972 -9.03477e+06) (19.4174 19.4174 -8.88389e+06) (15.4909 15.4909 -8.74108e+06) (11.1515 11.1515 -8.60624e+06) (6.77552 6.77552 -8.47927e+06) (-0.129068 -0.129068 -8.35997e+06) (-8.60823 -8.60823 -8.24861e+06) (-14.2594 -14.2594 -8.14494e+06) (-2.57934 -2.57934 -8.049e+06) (-5.6613 -5.6613 -7.96102e+06)
1400          (4.05697 4.05697 -7.48233e+06) (1.98285 1.98285 -9.03461e+06) (6.02165 6.02165 -8.88374e+06) (4.39702 4.39702 -8.74094e+06) (2.79265 2.79265 -8.60613e+06) (2.52242 2.52242 -8.4792e+06) (-1.16097 -1.16097 -8.35995e+06) (-7.48493 -7.48493 -8.24863e+06) (-10.6218 -10.6218 -8.14501e+06) (2.49601 2.49601 -8.04916e+06) (0.441051 0.441052 -7.96125e+06)
1450          (4.05697 4.05697 -7.48233e+06) (1.98285 1.98285 -9.03461e+06) (6.02165 6.02165 -8.88374e+06) (4.39702 4.39702 -8.74094e+06) (2.79265 2.79265 -8.60613e+06) (2.52242 2.52242 -8.4792e+06) (-1.16097 -1.16097 -8.35995e+06) (-7.48493 -7.48493 -8.24863e+06) (-10.6218 -10.6218 -8.14501e+06) (2.49601 2.49601 -8.04916e+06) (0.441051 0.441052 -7.96125e+06)
1500          (4.05697 4.05697 -7.48233e+06) (1.98285 1.98285 -9.03461e+06) (6.02165 6.02165 -8.88374e+06) (4.39702 4.39702 -8.74094e+06) (2.79265 2.79265 -8.60613e+06) (2.52242 2.52242 -8.4792e+06) (-1.16097 -1.16097 -8.35995e+06) (-7.48493 -7.48493 -8.24863e+06) (-10.6218 -10.6218 -8.14501e+06) (2.49601 2.49601 -8.04916e+06) (0.441051 0.441052 -7.96125e+06)
1550          (4.05697 4.05697 -7.48233e+06) (1.98285 1.98285 -9.03461e+06) (6.02165 6.02165 -8.88374e+06) (4.39702 4.39702 -8.74094e+06) (2.79265 2.79265 -8.60613e+06) (2.52242 2.52242 -8.4792e+06) (-1.16097 -1.16097 -8.35995e+06) (-7.48493 -7.48493 -8.24863e+06) (-10.6218 -10.6218 -8.14501e+06) (2.49601 2.49601 -8.04916e+06) (0.441051 0.441052 -7.96125e+06)
1600          (4.05697 4.05697 -7.48233e+06) (1.98285 1.98285 -9.03461e+06) (6.02165 6.02165 -8.88374e+06) (4.39702 4.39702 -8.74094e+06) (2.79265 2.79265 -8.60613e+06) (2.52242 2.52242 -8.4792e+06) (-1.16097 -1.16097 -8.35995e+06) (-7.48493 -7.48493 -8.24863e+06) (-10.6218 -10.6218 -8.14501e+06) (2.49601 2.49601 -8.04916e+06) (0.441051 0.441052 -7.96125e+06)
1650          (4.05697 4.05697 -7.48233e+06) (1.98285 1.98285 -9.03461e+06) (6.02165 6.02165 -8.88374e+06) (4.39702 4.39702 -8.74094e+06) (2.79265 2.79265 -8.60613e+06) (2.52242 2.52242 -8.4792e+06) (-1.16097 -1.16097 -8.35995e+06) (-7.48493 -7.48493 -8.24863e+06) (-10.6218 -10.6218 -8.14501e+06) (2.49601 2.49601 -8.04916e+06) (0.441051 0.441052 -7.96125e+06)
1700          (4.05697 4.05697 -7.48233e+06) (1.98285 1.98285 -9.03461e+06) (6.02165 6.02165 -8.88374e+06) (4.39702 4.39702 -8.74094e+06) (2.79265 2.79265 -8.60613e+06) (2.52242 2.52242 -8.4792e+06) (-1.16097 -1.16097 -8.35995e+06) (-7.48493 -7.48493 -8.24863e+06) (-10.6218 -10.6218 -8.14501e+06) (2.49601 2.49601 -8.04916e+06) (0.441051 0.441052 -7.96125e+06)
1750          (4.05697 4.05697 -7.48233e+06) (1.98285 1.98285 -9.03461e+06) (6.02165 6.02165 -8.88374e+06) (4.39702 4.39702 -8.74094e+06) (2.79265 2.79265 -8.60613e+06) (2.52242 2.52242 -8.4792e+06) (-1.16097 -1.16097 -8.35995e+06) (-7.48493 -7.48493 -8.24863e+06) (-10.6218 -10.6218 -8.14501e+06) (2.49601 2.49601 -8.04916e+06) (0.441051 0.441052 -7.96125e+06)
1800          (4.05697 4.05697 -7.48233e+06) (1.98285 1.98285 -9.03461e+06) (6.02165 6.02165 -8.88374e+06) (4.39702 4.39702 -8.74094e+06) (2.79265 2.79265 -8.60613e+06) (2.52242 2.52242 -8.4792e+06) (-1.16097 -1.16097 -8.35995e+06) (-7.48493 -7.48493 -8.24863e+06) (-10.6218 -10.6218 -8.14501e+06) (2.49601 2.49601 -8.04916e+06) (0.441051 0.441052 -7.96125e+06)
1850          (4.05697 4.05697 -7.48233e+06) (1.98285 1.98285 -9.03461e+06) (6.02165 6.02165 -8.88374e+06) (4.39702 4.39702 -8.74094e+06) (2.79265 2.79265 -8.60613e+06) (2.52242 2.52242 -8.4792e+06) (-1.16097 -1.16097 -8.35995e+06) (-7.48493 -7.48493 -8.24863e+06) (-10.6218 -10.6218 -8.14501e+06) (2.49601 2.49601 -8.04916e+06) (0.441051 0.441052 -7.96125e+06)
1900          (4.05697 4.05697 -7.48233e+06) (1.98285 1.98285 -9.03461e+06) (6.02165 6.02165 -8.88374e+06) (4.39702 4.39702 -8.74094e+06) (2.79265 2.79265 -8.60613e+06) (2.52242 2.52242 -8.4792e+06) (-1.16097 -1.16097 -8.35995e+06) (-7.48493 -7.48493 -8.24863e+06) (-10.6218 -10.6218 -8.14501e+06) (2.49601 2.49601 -8.04916e+06) (0.441051 0.441052 -7.96125e+06)
1950          (4.05697 4.05697 -7.48233e+06) (1.98285 1.98285 -9.03461e+06) (6.02165 6.02165 -8.88374e+06) (4.39702 4.39702 -8.74094e+06) (2.79265 2.79265 -8.60613e+06) (2.52242 2.52242 -8.4792e+06) (-1.16097 -1.16097 -8.35995e+06) (-7.48493 -7.48493 -8.24863e+06) (-10.6218 -10.6218 -8.14501e+06) (2.49601 2.49601 -8.04916e+06) (0.441051 0.441052 -7.96125e+06)
2000          (4.05697 4.05697 -7.48233e+06) (1.98285 1.98285 -9.03461e+06) (6.02165 6.02165 -8.88374e+06) (4.39702 4.39702 -8.74094e+06) (2.79265 2.79265 -8.60613e+06) (2.52242 2.52242 -8.4792e+06) (-1.16097 -1.16097 -8.35995e+06) (-7.48493 -7.48493 -8.24863e+06) (-10.6218 -10.6218 -8.14501e+06) (2.49601 2.49601 -8.04916e+06) (0.441051 0.441052 -7.96125e+06)
2050          (4.05697 4.05697 -7.48233e+06) (1.98285 1.98285 -9.03461e+06) (6.02165 6.02165 -8.88374e+06) (4.39702 4.39702 -8.74094e+06) (2.79265 2.79265 -8.60613e+06) (2.52242 2.52242 -8.4792e+06) (-1.16097 -1.16097 -8.35995e+06) (-7.48493 -7.48493 -8.24863e+06) (-10.6218 -10.6218 -8.14501e+06) (2.49601 2.49601 -8.04916e+06) (0.441051 0.441052 -7.96125e+06)
2100          (4.05697 4.05697 -7.48233e+06) (1.98285 1.98285 -9.03461e+06) (6.02165 6.02165 -8.88374e+06) (4.39702 4.39702 -8.74094e+06) (2.79265 2.79265 -8.60613e+06) (2.52242 2.52242 -8.4792e+06) (-1.16097 -1.16097 -8.35995e+06) (-7.48493 -7.48493 -8.24863e+06) (-10.6218 -10.6218 -8.14501e+06) (2.49601 2.49601 -8.04916e+06) (0.441051 0.441052 -7.96125e+06)
2150          (4.05697 4.05697 -7.48233e+06) (1.98285 1.98285 -9.03461e+06) (6.02165 6.02165 -8.88374e+06) (4.39702 4.39702 -8.74094e+06) (2.79265 2.79265 -8.60613e+06) (2.52242 2.52242 -8.4792e+06) (-1.16097 -1.16097 -8.35995e+06) (-7.48493 -7.48493 -8.24863e+06) (-10.6218 -10.6218 -8.14501e+06) (2.49601 2.49601 -8.04916e+06) (0.441051 0.441052 -7.96125e+06)
2200          (4.05697 4.05697 -7.48233e+06) (1.98285 1.98285 -9.03461e+06) (6.02165 6.02165 -8.88374e+06) (4.39702 4.39702 -8.74094e+06) (2.79265 2.79265 -8.60613e+06) (2.52242 2.52242 -8.4792e+06) (-1.16097 -1.16097 -8.35995e+06) (-7.48493 -7.48493 -8.24863e+06) (-10.6218 -10.6218 -8.14501e+06) (2.49601 2.49601 -8.04916e+06) (0.441051 0.441052 -7.96125e+06)
2250          (4.05697 4.05697 -7.48233e+06) (1.98285 1.98285 -9.03461e+06) (6.02165 6.02165 -8.88374e+06) (4.39702 4.39702 -8.74094e+06) (2.79265 2.79265 -8.60613e+06) (2.52242 2.52242 -8.4792e+06) (-1.16097 -1.16097 -8.35995e+06) (-7.48493 -7.48493 -8.24863e+06) (-10.6218 -10.6218 -8.14501e+06) (2.49601 2.49601 -8.04916e+06) (0.441051 0.441052 -7.96125e+06)
2300          (4.05697 4.05697 -7.48233e+06) (1.98285 1.98285 -9.03461e+06) (6.02165 6.02165 -8.88374e+06) (4.39702 4.39702 -8.74094e+06) (2.79265 2.79265 -8.60613e+06) (2.52242 2.52242 -8.4792e+06) (-1.16097 -1.16097 -8.35995e+06) (-7.48493 -7.48493 -8.24863e+06) (-10.6218 -10.6218 -8.14501e+06) (2.49601 2.49601 -8.04916e+06) (0.441051 0.441052 -7.96125e+06)
2350          (4.05697 4.05697 -7.48233e+06) (1.98285 1.98285 -9.03461e+06) (6.02165 6.02165 -8.88374e+06) (4.39702 4.39702 -8.74094e+06) (2.79265 2.79265 -8.60613e+06) (2.52242 2.52242 -8.4792e+06) (-1.16097 -1.16097 -8.35995e+06) (-7.48493 -7.48493 -8.24863e+06) (-10.6218 -10.6218 -8.14501e+06) (2.49601 2.49601 -8.04916e+06) (0.441051 0.441052 -7.96125e+06)
2400          (4.05697 4.05697 -7.48233e+06) (1.98285 1.98285 -9.03461e+06) (6.02165 6.02165 -8.88374e+06) (4.39702 4.39702 -8.74094e+06) (2.79265 2.79265 -8.60613e+06) (2.52242 2.52242 -8.4792e+06) (-1.16097 -1.16097 -8.35995e+06) (-7.48493 -7.48493 -8.24863e+06) (-10.6218 -10.6218 -8.14501e+06) (2.49601 2.49601 -8.04916e+06) (0.441051 0.441052 -7.96125e+06)
2450          (4.05697 4.05697 -7.48233e+06) (1.98285 1.98285 -9.03461e+06) (6.02165 6.02165 -8.88374e+06) (4.39702 4.39702 -8.74094e+06) (2.79265 2.79265 -8.60613e+06) (2.52242 2.52242 -8.4792e+06) (-1.16097 -1.16097 -8.35995e+06) (-7.48493 -7.48493 -8.24863e+06) (-10.6218 -10.6218 -8.14501e+06) (2.49601 2.49601 -8.04916e+06) (0.441051 0.441052 -7.96125e+06)
2500          (4.05697 4.05697 -7.48233e+06) (1.98285 1.98285 -9.03461e+06) (6.02165 6.02165 -8.88374e+06) (4.39702 4.39702 -8.74094e+06) (2.79265 2.79265 -8.60613e+06) (2.52242 2.52242 -8.4792e+06) (-1.16097 -1.16097 -8.35995e+06) (-7.48493 -7.48493 -8.24863e+06) (-10.6218 -10.6218 -8.14501e+06) (2.49601 2.49601 -8.04916e+06) (0.441051 0.441052 -7.96125e+06)
2550          (4.05697 4.05697 -7.48233e+06) (1.98285 1.98285 -9.03461e+06) (6.02165 6.02165 -8.88374e+06) (4.39702 4.39702 -8.74094e+06) (2.79265 2.79265 -8.60613e+06) (2.52242 2.52242 -8.4792e+06) (-1.16097 -1.16097 -8.35995e+06) (-7.48493 -7.48493 -8.24863e+06) (-10.6218 -10.6218 -8.14501e+06) (2.49601 2.49601 -8.04916e+06) (0.441051 0.441052 -7.96125e+06)
2600          (4.05697 4.05697 -7.48233e+06) (1.98285 1.98285 -9.03461e+06) (6.02165 6.02165 -8.88374e+06) (4.39702 4.39702 -8.74094e+06) (2.79265 2.79265 -8.60613e+06) (2.52242 2.52242 -8.4792e+06) (-1.16097 -1.16097 -8.35995e+06) (-7.48493 -7.48493 -8.24863e+06) (-10.6218 -10.6218 -8.14501e+06) (2.49601 2.49601 -8.04916e+06) (0.441051 0.441052 -7.96125e+06)
2650          (4.05697 4.05697 -7.48233e+06) (1.98285 1.98285 -9.03461e+06) (6.02165 6.02165 -8.88374e+06) (4.39702 4.39702 -8.74094e+06) (2.79265 2.79265 -8.60613e+06) (2.52242 2.52242 -8.4792e+06) (-1.16097 -1.16097 -8.35995e+06) (-7.48493 -7.48493 -8.24863e+06) (-10.6218 -10.6218 -8.14501e+06) (2.49601 2.49601 -8.04916e+06) (0.441051 0.441052 -7.96125e+06)
2700          (4.05697 4.05697 -7.48233e+06) (1.98285 1.98285 -9.03461e+06) (6.02165 6.02165 -8.88374e+06) (4.39702 4.39702 -8.74094e+06) (2.79265 2.79265 -8.60613e+06) (2.52242 2.52242 -8.4792e+06) (-1.16097 -1.16097 -8.35995e+06) (-7.48493 -7.48493 -8.24863e+06) (-10.6218 -10.6218 -8.14501e+06) (2.49601 2.49601 -8.04916e+06) (0.441051 0.441052 -7.96125e+06)
2750          (4.05697 4.05697 -7.48233e+06) (1.98285 1.98285 -9.03461e+06) (6.02165 6.02165 -8.88374e+06) (4.39702 4.39702 -8.74094e+06) (2.79265 2.79265 -8.60613e+06) (2.52242 2.52242 -8.4792e+06) (-1.16097 -1.16097 -8.35995e+06) (-7.48493 -7.48493 -8.24863e+06) (-10.6218 -10.6218 -8.14501e+06) (2.49601 2.49601 -8.04916e+06) (0.441051 0.441052 -7.96125e+06)
2800          (4.05697 4.05697 -7.48233e+06) (1.98285 1.98285 -9.03461e+06) (6.02165 6.02165 -8.88374e+06) (4.39702 4.39702 -8.74094e+06) (2.79265 2.79265 -8.60613e+06) (2.52242 2.52242 -8.4792e+06) (-1.16097 -1.16097 -8.35995e+06) (-7.48493 -7.48493 -8.24863e+06) (-10.6218 -10.6218 -8.14501e+06) (2.49601 2.49601 -8.04916e+06) (0.441051 0.441052 -7.96125e+06)
2850          (4.05697 4.05697 -7.48233e+06) (1.98285 1.98285 -9.03461e+06) (6.02165 6.02165 -8.88374e+06) (4.39702 4.39702 -8.74094e+06) (2.79265 2.79265 -8.60613e+06) (2.52242 2.52242 -8.4792e+06) (-1.16097 -1.16097 -8.35995e+06) (-7.48493 -7.48493 -8.24863e+06) (-10.6218 -10.6218 -8.14501e+06) (2.49601 2.49601 -8.04916e+06) (0.441051 0.441052 -7.96125e+06)
2900          (4.05697 4.05697 -7.48233e+06) (1.98285 1.98285 -9.03461e+06) (6.02165 6.02165 -8.88374e+06) (4.39702 4.39702 -8.74094e+06) (2.79265 2.79265 -8.60613e+06) (2.52242 2.52242 -8.4792e+06) (-1.16097 -1.16097 -8.35995e+06) (-7.48493 -7.48493 -8.24863e+06) (-10.6218 -10.6218 -8.14501e+06) (2.49601 2.49601 -8.04916e+06) (0.441051 0.441052 -7.96125e+06)
2950          (4.05697 4.05697 -7.48233e+06) (1.98285 1.98285 -9.03461e+06) (6.02165 6.02165 -8.88374e+06) (4.39702 4.39702 -8.74094e+06) (2.79265 2.79265 -8.60613e+06) (2.52242 2.52242 -8.4792e+06) (-1.16097 -1.16097 -8.35995e+06) (-7.48493 -7.48493 -8.24863e+06) (-10.6218 -10.6218 -8.14501e+06) (2.49601 2.49601 -8.04916e+06) (0.441051 0.441052 -7.96125e+06)
3000          (4.05697 4.05697 -7.48233e+06) (1.98285 1.98285 -9.03461e+06) (6.02165 6.02165 -8.88374e+06) (4.39702 4.39702 -8.74094e+06) (2.79265 2.79265 -8.60613e+06) (2.52242 2.52242 -8.4792e+06) (-1.16097 -1.16097 -8.35995e+06) (-7.48493 -7.48493 -8.24863e+06) (-10.6218 -10.6218 -8.14501e+06) (2.49601 2.49601 -8.04916e+06) (0.441051 0.441052 -7.96125e+06)
3050          (4.05697 4.05697 -7.48233e+06) (1.98285 1.98285 -9.03461e+06) (6.02165 6.02165 -8.88374e+06) (4.39702 4.39702 -8.74094e+06) (2.79265 2.79265 -8.60613e+06) (2.52242 2.52242 -8.4792e+06) (-1.16097 -1.16097 -8.35995e+06) (-7.48493 -7.48493 -8.24863e+06) (-10.6218 -10.6218 -8.14501e+06) (2.49601 2.49601 -8.04916e+06) (0.441051 0.441052 -7.96125e+06)
3100          (4.05697 4.05697 -7.48233e+06) (1.98285 1.98285 -9.03461e+06) (6.02165 6.02165 -8.88374e+06) (4.39702 4.39702 -8.74094e+06) (2.79265 2.79265 -8.60613e+06) (2.52242 2.52242 -8.4792e+06) (-1.16097 -1.16097 -8.35995e+06) (-7.48493 -7.48493 -8.24863e+06) (-10.6218 -10.6218 -8.14501e+06) (2.49601 2.49601 -8.04916e+06) (0.441051 0.441052 -7.96125e+06)
3150          (4.05697 4.05697 -7.48233e+06) (1.98285 1.98285 -9.03461e+06) (6.02165 6.02165 -8.88374e+06) (4.39702 4.39702 -8.74094e+06) (2.79265 2.79265 -8.60613e+06) (2.52242 2.52242 -8.4792e+06) (-1.16097 -1.16097 -8.35995e+06) (-7.48493 -7.48493 -8.24863e+06) (-10.6218 -10.6218 -8.14501e+06) (2.49601 2.49601 -8.04916e+06) (0.441051 0.441052 -7.96125e+06)
3200          (4.05697 4.05697 -7.48233e+06) (1.98285 1.98285 -9.03461e+06) (6.02165 6.02165 -8.88374e+06) (4.39702 4.39702 -8.74094e+06) (2.79265 2.79265 -8.60613e+06) (2.52242 2.52242 -8.4792e+06) (-1.16097 -1.16097 -8.35995e+06) (-7.48493 -7.48493 -8.24863e+06) (-10.6218 -10.6218 -8.14501e+06) (2.49601 2.49601 -8.04916e+06) (0.441051 0.441052 -7.96125e+06)
3250          (4.05697 4.05697 -7.48233e+06) (1.98285 1.98285 -9.03461e+06) (6.02165 6.02165 -8.88374e+06) (4.39702 4.39702 -8.74094e+06) (2.79265 2.79265 -8.60613e+06) (2.52242 2.52242 -8.4792e+06) (-1.16097 -1.16097 -8.35995e+06) (-7.48493 -7.48493 -8.24863e+06) (-10.6218 -10.6218 -8.14501e+06) (2.49601 2.49601 -8.04916e+06) (0.441051 0.441052 -7.96125e+06)
3300          (4.05697 4.05697 -7.48233e+06) (1.98285 1.98285 -9.03461e+06) (6.02165 6.02165 -8.88374e+06) (4.39702 4.39702 -8.74094e+06) (2.79265 2.79265 -8.60613e+06) (2.52242 2.52242 -8.4792e+06) (-1.16097 -1.16097 -8.35995e+06) (-7.48493 -7.48493 -8.24863e+06) (-10.6218 -10.6218 -8.14501e+06) (2.49601 2.49601 -8.04916e+06) (0.441051 0.441052 -7.96125e+06)
3350          (4.05697 4.05697 -7.48233e+06) (1.98285 1.98285 -9.03461e+06) (6.02165 6.02165 -8.88374e+06) (4.39702 4.39702 -8.74094e+06) (2.79265 2.79265 -8.60613e+06) (2.52242 2.52242 -8.4792e+06) (-1.16097 -1.16097 -8.35995e+06) (-7.48493 -7.48493 -8.24863e+06) (-10.6218 -10.6218 -8.14501e+06) (2.49601 2.49601 -8.04916e+06) (0.441051 0.441052 -7.96125e+06)
3400          (4.05697 4.05697 -7.48233e+06) (1.98285 1.98285 -9.03461e+06) (6.02165 6.02165 -8.88374e+06) (4.39702 4.39702 -8.74094e+06) (2.79265 2.79265 -8.60613e+06) (2.52242 2.52242 -8.4792e+06) (-1.16097 -1.16097 -8.35995e+06) (-7.48493 -7.48493 -8.24863e+06) (-10.6218 -10.6218 -8.14501e+06) (2.49601 2.49601 -8.04916e+06) (0.441051 0.441052 -7.96125e+06)
3450          (4.05697 4.05697 -7.48233e+06) (1.98285 1.98285 -9.03461e+06) (6.02165 6.02165 -8.88374e+06) (4.39702 4.39702 -8.74094e+06) (2.79265 2.79265 -8.60613e+06) (2.52242 2.52242 -8.4792e+06) (-1.16097 -1.16097 -8.35995e+06) (-7.48493 -7.48493 -8.24863e+06) (-10.6218 -10.6218 -8.14501e+06) (2.49601 2.49601 -8.04916e+06) (0.441051 0.441052 -7.96125e+06)
3500          (4.05697 4.05697 -7.48233e+06) (1.98285 1.98285 -9.03461e+06) (6.02165 6.02165 -8.88374e+06) (4.39702 4.39702 -8.74094e+06) (2.79265 2.79265 -8.60613e+06) (2.52242 2.52242 -8.4792e+06) (-1.16097 -1.16097 -8.35995e+06) (-7.48493 -7.48493 -8.24863e+06) (-10.6218 -10.6218 -8.14501e+06) (2.49601 2.49601 -8.04916e+06) (0.441051 0.441052 -7.96125e+06)
3550          (4.05697 4.05697 -7.48233e+06) (1.98285 1.98285 -9.03461e+06) (6.02165 6.02165 -8.88374e+06) (4.39702 4.39702 -8.74094e+06) (2.79265 2.79265 -8.60613e+06) (2.52242 2.52242 -8.4792e+06) (-1.16097 -1.16097 -8.35995e+06) (-7.48493 -7.48493 -8.24863e+06) (-10.6218 -10.6218 -8.14501e+06) (2.49601 2.49601 -8.04916e+06) (0.441051 0.441052 -7.96125e+06)
3600          (4.05697 4.05697 -7.48233e+06) (1.98285 1.98285 -9.03461e+06) (6.02165 6.02165 -8.88374e+06) (4.39702 4.39702 -8.74094e+06) (2.79265 2.79265 -8.60613e+06) (2.52242 2.52242 -8.4792e+06) (-1.16097 -1.16097 -8.35995e+06) (-7.48493 -7.48493 -8.24863e+06) (-10.6218 -10.6218 -8.14501e+06) (2.49601 2.49601 -8.04916e+06) (0.441051 0.441052 -7.96125e+06)
3650          (4.05697 4.05697 -7.48233e+06) (1.98285 1.98285 -9.03461e+06) (6.02165 6.02165 -8.88374e+06) (4.39702 4.39702 -8.74094e+06) (2.79265 2.79265 -8.60613e+06) (2.52242 2.52242 -8.4792e+06) (-1.16097 -1.16097 -8.35995e+06) (-7.48493 -7.48493 -8.24863e+06) (-10.6218 -10.6218 -8.14501e+06) (2.49601 2.49601 -8.04916e+06) (0.441051 0.441052 -7.96125e+06)
3700          (4.05697 4.05697 -7.48233e+06) (1.98285 1.98285 -9.03461e+06) (6.02165 6.02165 -8.88374e+06) (4.39702 4.39702 -8.74094e+06) (2.79265 2.79265 -8.60613e+06) (2.52242 2.52242 -8.4792e+06) (-1.16097 -1.16097 -8.35995e+06) (-7.48493 -7.48493 -8.24863e+06) (-10.6218 -10.6218 -8.14501e+06) (2.49601 2.49601 -8.04916e+06) (0.441051 0.441052 -7.96125e+06)
3750          (4.05697 4.05697 -7.48233e+06) (1.98285 1.98285 -9.03461e+06) (6.02165 6.02165 -8.88374e+06) (4.39702 4.39702 -8.74094e+06) (2.79265 2.79265 -8.60613e+06) (2.52242 2.52242 -8.4792e+06) (-1.16097 -1.16097 -8.35995e+06) (-7.48493 -7.48493 -8.24863e+06) (-10.6218 -10.6218 -8.14501e+06) (2.49601 2.49601 -8.04916e+06) (0.441051 0.441052 -7.96125e+06)
3800          (4.05697 4.05697 -7.48233e+06) (1.98285 1.98285 -9.03461e+06) (6.02165 6.02165 -8.88374e+06) (4.39702 4.39702 -8.74094e+06) (2.79265 2.79265 -8.60613e+06) (2.52242 2.52242 -8.4792e+06) (-1.16097 -1.16097 -8.35995e+06) (-7.48493 -7.48493 -8.24863e+06) (-10.6218 -10.6218 -8.14501e+06) (2.49601 2.49601 -8.04916e+06) (0.441051 0.441052 -7.96125e+06)
3850          (4.05697 4.05697 -7.48233e+06) (1.98285 1.98285 -9.03461e+06) (6.02165 6.02165 -8.88374e+06) (4.39702 4.39702 -8.74094e+06) (2.79265 2.79265 -8.60613e+06) (2.52242 2.52242 -8.4792e+06) (-1.16097 -1.16097 -8.35995e+06) (-7.48493 -7.48493 -8.24863e+06) (-10.6218 -10.6218 -8.14501e+06) (2.49601 2.49601 -8.04916e+06) (0.441051 0.441052 -7.96125e+06)
3900          (4.05697 4.05697 -7.48233e+06) (1.98285 1.98285 -9.03461e+06) (6.02165 6.02165 -8.88374e+06) (4.39702 4.39702 -8.74094e+06) (2.79265 2.79265 -8.60613e+06) (2.52242 2.52242 -8.4792e+06) (-1.16097 -1.16097 -8.35995e+06) (-7.48493 -7.48493 -8.24863e+06) (-10.6218 -10.6218 -8.14501e+06) (2.49601 2.49601 -8.04916e+06) (0.441051 0.441052 -7.96125e+06)
3950          (4.05697 4.05697 -7.48233e+06) (1.98285 1.98285 -9.03461e+06) (6.02165 6.02165 -8.88374e+06) (4.39702 4.39702 -8.74094e+06) (2.79265 2.79265 -8.60613e+06) (2.52242 2.52242 -8.4792e+06) (-1.16097 -1.16097 -8.35995e+06) (-7.48493 -7.48493 -8.24863e+06) (-10.6218 -10.6218 -8.14501e+06) (2.49601 2.49601 -8.04916e+06) (0.441051 0.441052 -7.96125e+06)
4000          (4.05697 4.05697 -7.48233e+06) (1.98285 1.98285 -9.03461e+06) (6.02165 6.02165 -8.88374e+06) (4.39702 4.39702 -8.74094e+06) (2.79265 2.79265 -8.60613e+06) (2.52242 2.52242 -8.4792e+06) (-1.16097 -1.16097 -8.35995e+06) (-7.48493 -7.48493 -8.24863e+06) (-10.6218 -10.6218 -8.14501e+06) (2.49601 2.49601 -8.04916e+06) (0.441051 0.441052 -7.96125e+06)
4050          (4.05697 4.05697 -7.48233e+06) (1.98285 1.98285 -9.03461e+06) (6.02165 6.02165 -8.88374e+06) (4.39702 4.39702 -8.74094e+06) (2.79265 2.79265 -8.60613e+06) (2.52242 2.52242 -8.4792e+06) (-1.16097 -1.16097 -8.35995e+06) (-7.48493 -7.48493 -8.24863e+06) (-10.6218 -10.6218 -8.14501e+06) (2.49601 2.49601 -8.04916e+06) (0.441051 0.441052 -7.96125e+06)