# Probe 0 (0.0015 0.0015 0)
# Probe 1 (0.0015 0.0015 0.002)
# Probe 2 (0.0015 0.0015 0.004)
# Probe 3 (0.0015 0.0015 0.006)
# Probe 4 (0.0015 0.0015 0.008)
# Probe 5 (0.0015 0.0015 0.01)
# Probe 6 (0.0015 0.0015 0.012)
# Probe 7 (0.0015 0.0015 0.014)
# Probe 8 (0.0015 0.0015 0.016)
# Probe 9 (0.0015 0.0015 0.018)
# Probe 10 (0.0015 0.0015 0.02)
# Time        0             1             2             3             4             5             6             7             8             9             10           
50            (7.331e-12 -1.80901e-11 -6.01323e-11) (1.37728e-10 1.95917e-11 -4.87025e-10) (6.61045e-10 -5.52511e-10 -8.89221e-10) (7.9404e-10 -1.07196e-09 -2.38699e-09) (1.10591e-09 -9.32339e-10 -2.68447e-09) (1.29362e-09 -1.43701e-09 -2.95445e-09) (1.65787e-09 -1.57235e-09 -3.43082e-09) (2.04279e-09 -2.07968e-09 -4.43452e-09) (2.31372e-09 -2.3785e-09 -4.46065e-09) (2.75382e-09 -2.79812e-09 -5.72236e-09) (2.70108e-09 -2.83713e-09 -6.29576e-09)
100           (2.23897e-10 -4.33132e-11 -1.6561e-10) (1.63907e-10 -2.98074e-10 -6.563e-10) (7.12256e-10 -1.01787e-09 -4.27725e-10) (1.31272e-09 -1.42641e-09 -1.27485e-09) (2.10365e-09 -1.67691e-09 -1.25197e-09) (2.4296e-09 -2.63113e-09 -1.67357e-09) (2.76947e-09 -2.77858e-09 -2.29461e-09) (3.23011e-09 -3.44296e-09 -2.74264e-09) (3.72887e-09 -3.85593e-09 -2.59426e-09) (3.60157e-09 -3.81181e-09 -3.59086e-09) (4.06253e-09 -3.86424e-09 -4.09654e-09)
150           (5.4971e-11 -2.134e-10 -7.38784e-11) (5.28779e-10 -4.84806e-10 -4.90584e-10) (1.07859e-09 -1.04875e-09 -4.48562e-10) (1.83241e-09 -1.55192e-09 -1.04057e-09) (2.48461e-09 -2.33364e-09 -1.22856e-09) (3.09488e-09 -3.07145e-09 -2.67913e-09) (3.35628e-09 -3.44408e-09 -2.78677e-09) (3.8262e-09 -3.93036e-09 -3.72673e-09) (4.32414e-09 -4.41964e-09 -4.29583e-09) (4.53013e-09 -4.77499e-09 -5.14083e-09) (4.46054e-09 -4.91235e-09 -4.82925e-09)
200           (-1.94141e-11 -2.63009e-10 -2.16786e-10) (4.0139e-10 -7.49174e-10 -5.31151e-10) (1.18075e-09 -1.19847e-09 -7.54158e-10) (2.02048e-09 -1.88761e-09 -1.47989e-09) (2.33942e-09 -2.35444e-09 -1.58418e-09) (2.90879e-09 -2.94686e-09 -2.18876e-09) (3.53206e-09 -3.69267e-09 -2.50861e-09) (4.49017e-09 -4.07269e-09 -3.07063e-09) (4.82439e-09 -4.73477e-09 -2.80359e-09) (5.0566e-09 -5.00989e-09 -2.61001e-09) (5.05283e-09 -5.0674e-09 -3.15883e-09)
250           (9.3742e-12 -1.63911e-10 -1.30092e-10) (5.11412e-10 -8.42592e-10 -1.68846e-10) (1.20816e-09 -1.22259e-09 -6.63731e-10) (2.09149e-09 -2.02412e-09 -1.42856e-09) (2.93435e-09 -2.45596e-09 -1.76897e-09) (3.34365e-09 -3.28069e-09 -2.11237e-09) (3.83001e-09 -3.89589e-09 -2.96439e-09) (4.41156e-09 -4.33391e-09 -2.34278e-09) (4.74272e-09 -4.76559e-09 -3.32584e-09) (5.05175e-09 -5.17935e-09 -3.64703e-09) (5.41246e-09 -5.35922e-09 -5.25807e-09)
300           (6.9336e-11 -7.62357e-11 1.10544e-10) (9.52739e-10 -7.35287e-10 1.96789e-10) (1.05414e-09 -1.22934e-09 -2.58931e-11) (1.84045e-09 -1.84964e-09 -8.31142e-11) (2.79741e-09 -2.60083e-09 -5.68927e-10) (3.32857e-09 -3.42919e-09 -6.62079e-10) (3.91323e-09 -4.04177e-09 -9.5556e-10) (4.49279e-09 -4.26947e-09 -2.11745e-09) (4.97832e-09 -5.01291e-09 -1.92172e-09) (5.50757e-09 -5.17147e-09 -2.48253e-09) (5.39745e-09 -5.55276e-09 -2.79801e-09)
350           (4.91648e-11 -1.07069e-10 8.03391e-11) (4.85326e-10 -7.89452e-10 -4.95791e-10) (1.21586e-09 -1.49929e-09 -8.55707e-10) (2.17909e-09 -1.81736e-09 -1.38698e-09) (2.87028e-09 -2.53597e-09 -2.33887e-09) (3.71188e-09 -3.29824e-09 -2.05034e-09) (4.06998e-09 -3.88191e-09 -3.24e-09) (4.78988e-09 -4.48548e-09 -3.08621e-09) (4.86734e-09 -4.6914e-09 -4.10433e-09) (5.00161e-09 -5.44916e-09 -3.80545e-09) (5.32232e-09 -5.18409e-09 -4.71003e-09)
400           (1.74297e-10 -3.16123e-10 -5.40554e-11) (7.27444e-10 -6.71614e-10 3.37032e-11) (1.39356e-09 -1.3887e-09 -5.29166e-10) (2.05087e-09 -1.99216e-09 -1.34104e-09) (2.86561e-09 -2.88981e-09 -2.0598e-09) (3.59424e-09 -3.50953e-09 -2.05863e-09) (4.13446e-09 -4.0519e-09 -1.64599e-09) (4.59738e-09 -4.36785e-09 -2.38844e-09) (5.07886e-09 -4.82117e-09 -1.56711e-09) (5.7159e-09 -5.14772e-09 -2.08615e-09) (5.66167e-09 -5.26711e-09 -2.04165e-09)
450           (-7.43351e-11 -1.4779e-10 1.06822e-11) (7.20286e-10 -4.55569e-10 -6.99729e-11) (1.24661e-09 -1.34461e-09 -1.31491e-09) (1.88351e-09 -2.04025e-09 -1.71028e-09) (2.66551e-09 -2.78628e-09 -2.55791e-09) (3.3231e-09 -3.54058e-09 -1.90388e-09) (3.98124e-09 -3.72783e-09 -2.26972e-09) (4.64522e-09 -4.52977e-09 -2.43888e-09) (5.17204e-09 -4.93285e-09 -3.62657e-09) (5.55335e-09 -5.24828e-09 -3.07861e-09) (5.17572e-09 -5.50998e-09 -3.16015e-09)
500           (2.78139e-10 -6.06755e-11 -1.30749e-10) (5.98337e-10 -7.59197e-10 -4.3367e-10) (1.5745e-09 -1.11524e-09 -5.18976e-10) (1.90738e-09 -2.06735e-09 -9.05791e-10) (2.78775e-09 -2.78613e-09 -2.05497e-09) (3.29362e-09 -3.32161e-09 -1.99439e-09) (3.89056e-09 -3.87293e-09 -3.05969e-09) (4.44675e-09 -4.70368e-09 -3.26202e-09) (5.01167e-09 -4.92027e-09 -4.57358e-09) (5.46053e-09 -5.47118e-09 -4.99369e-09) (5.60003e-09 -5.51474e-09 -5.89427e-09)
550           (8.67537e-11 -2.75872e-11 8.65347e-11) (7.89945e-10 -8.40741e-10 -5.2156e-10) (1.47866e-09 -1.24249e-09 -6.59044e-10) (2.14063e-09 -1.90917e-09 -1.19607e-09) (2.60334e-09 -2.72586e-09 -1.54433e-09) (3.25602e-09 -3.67671e-09 -1.27674e-09) (4.1838e-09 -3.96545e-09 -1.6952e-09) (4.37991e-09 -4.5129e-09 -2.43721e-09) (5.0505e-09 -5.06277e-09 -2.01955e-09) (5.45036e-09 -5.29486e-09 -3.38636e-09) (5.54686e-09 -5.24364e-09 -3.6716e-09)
600           (6.68289e-11 -1.67608e-10 -2.43428e-11) (8.01475e-10 -7.17394e-10 -2.50605e-10) (1.17723e-09 -1.33208e-09 -2.58786e-10) (2.07139e-09 -1.86545e-09 -1.07072e-09) (2.86382e-09 -2.44996e-09 -1.59868e-09) (3.27351e-09 -3.31108e-09 -2.08017e-09) (4.00691e-09 -4.11971e-09 -2.52911e-09) (4.547e-09 -4.79453e-09 -3.09861e-09) (5.14056e-09 -5.15739e-09 -3.74182e-09) (5.33896e-09 -5.68879e-09 -4.33726e-09) (5.2608e-09 -5.24376e-09 -5.32172e-09)
650           (2.1923e-11 1.08864e-11 -1.02069e-10) (6.28185e-10 -4.9989e-10 -3.10654e-10) (1.45811e-09 -1.31107e-09 -5.57643e-10) (2.22543e-09 -1.99007e-09 -1.40537e-09) (2.66232e-09 -2.80771e-09 -1.24441e-09) (3.13945e-09 -3.45139e-09 -1.98065e-09) (3.98932e-09 -4.03406e-09 -1.82045e-09) (4.50587e-09 -4.71475e-09 -2.61611e-09) (5.23488e-09 -5.36349e-09 -2.56379e-09) (5.53564e-09 -5.52687e-09 -3.48576e-09) (5.46628e-09 -5.30232e-09 -4.54466e-09)
700           (9.75074e-11 3.95356e-11 -7.84364e-11) (7.78909e-10 -5.82611e-10 -4.4786e-11) (1.31421e-09 -1.15341e-09 -1.86542e-10) (2.01477e-09 -1.98983e-09 -4.8109e-10) (2.71377e-09 -2.60861e-09 -1.12688e-09) (3.38819e-09 -3.40767e-09 -1.52803e-09) (3.92008e-09 -3.66984e-09 -2.04348e-09) (4.54716e-09 -4.44582e-09 -3.17559e-09) (4.89864e-09 -5.37321e-09 -4.24634e-09) (5.19981e-09 -5.57944e-09 -4.62726e-09) (5.33969e-09 -5.4329e-09 -5.80197e-09)
750           (6.36715e-11 -7.89778e-11 -1.65941e-10) (7.16209e-10 -8.89277e-10 -8.59775e-10) (1.25305e-09 -1.55881e-09 -1.01518e-09) (1.69394e-09 -2.04032e-09 -1.5155e-09) (2.74888e-09 -2.5176e-09 -1.26082e-09) (3.36053e-09 -3.25827e-09 -2.31576e-09) (3.99676e-09 -3.90741e-09 -2.43192e-09) (4.50472e-09 -4.58481e-09 -2.63713e-09) (5.27478e-09 -5.1275e-09 -3.94611e-09) (5.1517e-09 -5.27956e-09 -3.47769e-09) (5.4864e-09 -5.17416e-09 -3.86684e-09)
800           (1.65686e-10 -8.75584e-11 -1.34264e-10) (8.06854e-10 -7.03245e-10 -5.38301e-11) (1.10786e-09 -1.50963e-09 -2.71454e-10) (1.91771e-09 -2.06884e-09 -1.11313e-09) (2.77425e-09 -2.72883e-09 -1.88563e-09) (3.59884e-09 -3.37218e-09 -1.68763e-09) (4.12157e-09 -3.89044e-09 -1.22243e-09) (4.71225e-09 -4.39112e-09 -1.25586e-09) (4.93818e-09 -4.73429e-09 -1.94269e-09) (5.16427e-09 -5.17841e-09 -2.34274e-09) (5.37234e-09 -5.34935e-09 -2.92955e-09)
850           (-4.10679e-11 -7.93705e-11 -8.03139e-11) (8.95198e-10 -7.49503e-10 2.31607e-11) (1.50042e-09 -1.42121e-09 -7.29454e-10) (2.2814e-09 -2.13898e-09 -9.68965e-10) (2.70257e-09 -2.89775e-09 -2.25248e-09) (3.45529e-09 -3.64507e-09 -2.6736e-09) (3.58677e-09 -3.98022e-09 -2.97846e-09) (4.55874e-09 -4.68415e-09 -3.22742e-09) (4.95555e-09 -4.73193e-09 -3.30846e-09) (5.45481e-09 -5.26383e-09 -3.00375e-09) (5.40344e-09 -5.26242e-09 -3.55105e-09)
900           (1.2833e-10 -4.07668e-11 1.52381e-10) (6.32463e-10 -5.79716e-10 -2.15551e-10) (1.52078e-09 -1.21203e-09 -1.20514e-09) (2.0837e-09 -2.11156e-09 -1.28117e-09) (2.87684e-09 -2.68582e-09 -1.95704e-09) (3.20596e-09 -3.55395e-09 -1.70738e-09) (3.79326e-09 -4.15646e-09 -2.21741e-09) (4.33575e-09 -4.72238e-09 -2.68432e-09) (5.26118e-09 -5.26276e-09 -3.24126e-09) (5.23485e-09 -5.52991e-09 -3.61058e-09) (5.53485e-09 -5.4861e-09 -4.41376e-09)
950           (2.26967e-11 -9.10153e-11 -1.81985e-10) (5.80364e-10 -7.81359e-10 -5.4084e-11) (1.2484e-09 -1.49132e-09 -5.83161e-10) (2.17507e-09 -1.9074e-09 -1.26149e-09) (2.76019e-09 -2.71601e-09 -2.19366e-09) (3.58388e-09 -3.38915e-09 -1.17702e-09) (3.76794e-09 -4.04963e-09 -1.66228e-09) (4.29474e-09 -4.43091e-09 -1.76839e-09) (5.03314e-09 -5.03205e-09 -2.04777e-09) (5.28025e-09 -5.60047e-09 -2.66039e-09) (5.58219e-09 -5.30286e-09 -3.25863e-09)
1000          (1.46116e-10 -1.11823e-11 -1.04241e-10) (9.93701e-10 -8.47483e-10 7.20729e-11) (1.35265e-09 -1.21823e-09 -3.73999e-10) (2.12894e-09 -2.11623e-09 -1.08568e-09) (2.8024e-09 -2.54205e-09 -1.81178e-09) (3.67443e-09 -3.79071e-09 -1.80363e-09) (4.18615e-09 -4.14867e-09 -1.73903e-09) (4.60107e-09 -4.68599e-09 -2.166e-09) (5.07348e-09 -4.94734e-09 -2.29596e-09) (5.81146e-09 -5.26155e-09 -2.59003e-09) (5.82836e-09 -5.47665e-09 -2.03347e-09)
1050          (1.00147e-10 -2.69025e-10 -1.09112e-10) (6.19483e-10 -6.67832e-10 -3.41885e-10) (1.20789e-09 -1.63024e-09 -6.17787e-10) (2.09872e-09 -2.01389e-09 -6.28164e-10) (2.56325e-09 -2.57596e-09 -9.85554e-10) (3.46988e-09 -3.5337e-09 -1.29541e-09) (4.22654e-09 -3.88735e-09 -1.65015e-09) (4.64966e-09 -4.63101e-09 -2.0127e-09) (5.15117e-09 -5.19492e-09 -2.15061e-09) (5.38204e-09 -5.47166e-09 -2.73952e-09) (5.42892e-09 -5.05636e-09 -3.6107e-09)
1100          (5.27947e-11 2.65151e-12 -3.86311e-10) (7.58486e-10 -5.22054e-10 -9.71702e-10) (1.30338e-09 -1.35552e-09 -8.66148e-10) (2.04286e-09 -2.18301e-09 -1.19215e-09) (2.78181e-09 -2.59552e-09 -2.49414e-09) (3.60245e-09 -3.58984e-09 -2.66744e-09) (3.98448e-09 -4.10032e-09 -3.6321e-09) (4.79309e-09 -4.41457e-09 -4.16481e-09) (5.03124e-09 -5.1492e-09 -4.13746e-09) (5.33102e-09 -5.44265e-09 -4.43004e-09) (5.40603e-09 -5.76095e-09 -4.67759e-09)
1150          (1.3389e-10 5.66698e-11 -3.56018e-10) (6.9616e-10 -5.81081e-10 -6.11955e-10) (1.47852e-09 -1.41109e-09 -6.94171e-10) (2.09855e-09 -2.16114e-09 -1.8603e-09) (2.6291e-09 -2.74922e-09 -1.76356e-09) (3.37005e-09 -3.52893e-09 -2.74808e-09) (3.93399e-09 -4.02358e-09 -3.16444e-09) (4.48369e-09 -4.62353e-09 -3.62838e-09) (4.91865e-09 -5.10547e-09 -4.64754e-09) (5.35413e-09 -5.35988e-09 -4.98649e-09) (5.51014e-09 -5.32492e-09 -6.58636e-09)
1200          (1.23247e-10 -8.138e-11 -9.33968e-11) (6.66014e-10 -6.73939e-10 -5.49424e-10) (1.44582e-09 -1.28267e-09 -1.0104e-09) (2.12694e-09 -1.92801e-09 -1.40836e-09) (2.85093e-09 -2.95003e-09 -2.21779e-09) (3.58064e-09 -3.49097e-09 -1.92441e-09) (4.07352e-09 -3.97879e-09 -2.40661e-09) (4.7122e-09 -4.34463e-09 -2.01524e-09) (4.96932e-09 -4.79709e-09 -2.72822e-09) (5.49075e-09 -5.38202e-09 -2.35737e-09) (5.74083e-09 -5.54357e-09 -2.7893e-09)
1250          (-1.39666e-10 -3.77341e-11 4.37967e-11) (7.05568e-10 -6.32837e-10 -6.03136e-10) (1.26332e-09 -1.38225e-09 -1.02881e-09) (2.05495e-09 -2.12824e-09 -1.30525e-09) (2.4366e-09 -2.53412e-09 -1.26466e-09) (3.49196e-09 -3.35828e-09 -2.32608e-09) (4.00411e-09 -3.82787e-09 -2.67669e-09) (4.6735e-09 -4.42026e-09 -2.86549e-09) (5.30657e-09 -4.98992e-09 -3.44397e-09) (5.67649e-09 -5.427e-09 -4.14286e-09) (5.37562e-09 -5.59632e-09 -5.33169e-09)
1300          (-7.88366e-11 1.94805e-11 -3.25768e-10) (7.94158e-10 -4.15372e-10 2.06931e-10) (1.38069e-09 -1.60601e-09 -8.80941e-10) (2.19206e-09 -2.15199e-09 -1.29095e-09) (2.75356e-09 -2.9015e-09 -1.14712e-09) (3.49082e-09 -3.41807e-09 -2.19997e-09) (3.83603e-09 -3.86265e-09 -3.48164e-09) (4.43049e-09 -4.16119e-09 -2.86163e-09) (4.9842e-09 -4.87597e-09 -3.46955e-09) (5.2426e-09 -5.44368e-09 -4.00823e-09) (5.46941e-09 -5.49014e-09 -3.50116e-09)
1350          (-2.58837e-11 -8.75377e-11 -4.04411e-11) (7.12758e-10 -8.74334e-10 -3.81932e-10) (1.09678e-09 -1.39822e-09 -5.03518e-10) (2.05937e-09 -1.9542e-09 -1.48332e-09) (2.84684e-09 -2.92791e-09 -1.50545e-09) (3.24702e-09 -3.54228e-09 -1.97473e-09) (3.95516e-09 -3.92674e-09 -2.91892e-09) (4.53902e-09 -4.33976e-09 -3.22102e-09) (5.10448e-09 -4.86494e-09 -4.17687e-09) (5.44641e-09 -5.46758e-09 -5.01879e-09) (5.43859e-09 -5.31357e-09 -5.11439e-09)
1400          (1.06784e-10 -1.33083e-10 4.50235e-11) (3.80255e-10 -7.47115e-10 -1.04435e-10) (1.1072e-09 -1.18493e-09 -9.35536e-10) (2.19062e-09 -2.14523e-09 -1.55137e-09) (2.97657e-09 -2.66358e-09 -2.27927e-09) (3.64841e-09 -3.37468e-09 -3.25193e-09) (4.14337e-09 -4.1175e-09 -2.84264e-09) (4.34495e-09 -4.41112e-09 -2.649e-09) (4.94378e-09 -5.02556e-09 -3.34407e-09) (5.16455e-09 -5.58594e-09 -3.65372e-09) (5.5122e-09 -5.64354e-09 -3.27769e-09)
1450          (9.93241e-11 -3.17701e-11 -3.33057e-11) (7.47274e-10 -8.92403e-10 -5.62042e-10) (1.49436e-09 -1.45632e-09 -7.82987e-10) (2.07114e-09 -2.27051e-09 -2.22733e-10) (2.70619e-09 -2.6152e-09 -2.22382e-09) (3.62396e-09 -3.51383e-09 -1.96722e-09) (4.11351e-09 -3.93488e-09 -2.24239e-09) (4.72557e-09 -4.6202e-09 -2.95586e-09) (5.48611e-09 -5.05174e-09 -3.91352e-09) (5.46181e-09 -5.45835e-09 -3.99671e-09) (5.5933e-09 -5.59892e-09 -4.27601e-09)
1500          (7.39057e-11 -1.44505e-10 1.13972e-10) (6.86963e-10 -7.52018e-10 -1.34574e-10) (1.34375e-09 -1.37097e-09 -9.73513e-10) (2.06981e-09 -2.05802e-09 -1.59011e-09) (2.51456e-09 -2.61793e-09 -2.32787e-09) (3.16374e-09 -3.2692e-09 -2.93544e-09) (3.75985e-09 -3.91563e-09 -3.58567e-09) (4.61561e-09 -4.49845e-09 -3.66574e-09) (5.20333e-09 -4.9149e-09 -4.29556e-09) (5.4358e-09 -5.29686e-09 -5.17946e-09) (5.62258e-09 -5.45198e-09 -6.35195e-09)
1550          (1.1095e-10 -1.64654e-11 -3.34316e-11) (3.04171e-10 -6.25767e-10 -7.74614e-10) (1.27491e-09 -1.17447e-09 -8.14431e-10) (2.00207e-09 -2.13482e-09 -1.37806e-09) (2.78039e-09 -2.78973e-09 -2.06766e-09) (3.36966e-09 -3.56846e-09 -2.68893e-09) (3.95227e-09 -3.86143e-09 -3.73715e-09) (4.35203e-09 -4.41433e-09 -5.12851e-09) (5.1232e-09 -5.12471e-09 -5.15296e-09) (5.13716e-09 -5.47485e-09 -5.32955e-09) (5.29311e-09 -5.64225e-09 -5.86277e-09)
1600          (-6.21923e-11 4.05354e-11 6.51937e-11) (4.92456e-10 -6.38491e-10 -7.66952e-11) (1.27725e-09 -1.53301e-09 -4.04638e-10) (2.05671e-09 -1.89199e-09 1.38374e-10) (2.62602e-09 -2.77387e-09 -6.45286e-10) (3.3131e-09 -3.6097e-09 5.96465e-11) (4.20847e-09 -3.94169e-09 -6.89371e-10) (4.68716e-09 -4.55361e-09 -9.3018e-10) (5.2105e-09 -5.24191e-09 -2.2127e-09) (5.55536e-09 -5.6052e-09 -2.53367e-09) (5.69019e-09 -5.5996e-09 -2.66747e-09)
1650          (-4.82324e-11 -5.07539e-11 -7.57544e-11) (7.43066e-10 -7.17891e-10 8.69967e-11) (1.57415e-09 -1.33644e-09 -4.24426e-10) (1.9382e-09 -2.15214e-09 -5.85324e-10) (2.73218e-09 -2.45552e-09 -1.44887e-09) (3.31322e-09 -3.30387e-09 -2.07766e-09) (4.00119e-09 -4.02451e-09 -2.03817e-09) (4.45758e-09 -4.56878e-09 -2.02279e-09) (5.20459e-09 -5.27585e-09 -3.3642e-09) (5.49124e-09 -5.38334e-09 -3.61415e-09) (5.49288e-09 -5.4493e-09 -3.9951e-09)
1700          (1.92904e-10 -1.3103e-10 -2.91025e-10) (6.23955e-10 -1.01362e-09 -7.6985e-10) (1.2633e-09 -1.5903e-09 -7.02441e-10) (2.08131e-09 -1.79554e-09 -8.959e-10) (2.93217e-09 -2.66429e-09 -1.90595e-09) (3.81414e-09 -3.48638e-09 -2.15598e-09) (4.16037e-09 -4.05088e-09 -2.792e-09) (4.62041e-09 -4.50017e-09 -3.55866e-09) (5.09524e-09 -5.07366e-09 -3.94358e-09) (5.47853e-09 -5.49446e-09 -3.65264e-09) (5.10761e-09 -5.33579e-09 -4.05648e-09)
1750          (-7.22244e-12 -2.04224e-11 -2.91183e-11) (6.58455e-10 -5.15602e-10 -6.20473e-10) (1.29708e-09 -1.29072e-09 -1.19755e-09) (2.24277e-09 -2.10455e-09 -1.11857e-09) (2.54912e-09 -2.83649e-09 -1.60128e-09) (3.65592e-09 -3.21516e-09 -2.47647e-09) (4.09926e-09 -3.6324e-09 -2.49821e-09) (4.41635e-09 -4.63101e-09 -3.73526e-09) (5.15038e-09 -5.00768e-09 -3.4722e-09) (5.50791e-09 -5.46609e-09 -4.19126e-09) (5.35671e-09 -5.41993e-09 -3.73788e-09)
1800          (1.44401e-11 -2.02813e-10 1.0739e-10) (6.87705e-10 -7.75833e-10 -7.12268e-10) (1.42049e-09 -1.42595e-09 -9.88821e-10) (2.24555e-09 -2.15701e-09 -1.79218e-09) (2.77093e-09 -2.90415e-09 -2.23682e-09) (3.44146e-09 -3.52522e-09 -2.74779e-09) (3.80344e-09 -4.17239e-09 -3.21364e-09) (4.59767e-09 -4.32848e-09 -3.92795e-09) (5.13448e-09 -5.03797e-09 -3.84636e-09) (5.44308e-09 -5.38997e-09 -3.71564e-09) (5.15552e-09 -5.66491e-09 -4.93135e-09)
1850          (4.33517e-11 -8.5473e-11 -3.28529e-10) (6.52089e-10 -8.62721e-10 -5.14409e-10) (1.166e-09 -1.60541e-09 -1.41334e-09) (2.12429e-09 -1.89435e-09 -2.18798e-09) (2.73956e-09 -2.67334e-09 -1.87699e-09) (3.43466e-09 -3.40392e-09 -2.65638e-09) (4.01591e-09 -3.87088e-09 -3.03479e-09) (4.68881e-09 -4.39786e-09 -3.80148e-09) (5.1221e-09 -4.86992e-09 -4.51325e-09) (5.67325e-09 -5.40635e-09 -5.55766e-09) (5.56269e-09 -5.48391e-09 -5.04241e-09)
1900          (9.5651e-11 -1.13917e-10 -1.49247e-10) (7.75544e-10 -5.92834e-10 -8.66568e-10) (1.5299e-09 -1.42923e-09 -7.91093e-10) (2.17502e-09 -1.94388e-09 -1.69878e-09) (2.80124e-09 -2.94729e-09 -2.0666e-09) (3.31291e-09 -3.45092e-09 -1.89898e-09) (4.25264e-09 -3.96118e-09 -1.41374e-09) (4.77974e-09 -4.46767e-09 -1.32771e-09) (4.94674e-09 -4.99365e-09 -2.01578e-09) (5.39039e-09 -5.23065e-09 -2.30178e-09) (5.45783e-09 -5.59384e-09 -2.19731e-09)
1950          (1.18855e-10 1.21569e-10 6.45113e-11) (7.98954e-10 -7.51145e-10 -5.43935e-10) (1.2673e-09 -1.30789e-09 -1.20169e-09) (2.14514e-09 -2.0308e-09 -1.51333e-09) (2.80773e-09 -2.75412e-09 -2.69918e-09) (3.36519e-09 -3.45435e-09 -2.69695e-09) (3.94945e-09 -4.05421e-09 -3.09747e-09) (4.38076e-09 -4.52218e-09 -3.24081e-09) (5.20241e-09 -4.96239e-09 -3.53567e-09) (5.42065e-09 -5.26877e-09 -4.42769e-09) (5.77964e-09 -5.50717e-09 -4.35223e-09)
2000          (5.93081e-11 -2.28122e-11 4.27567e-11) (8.18966e-10 -4.5083e-10 -5.34468e-10) (1.0517e-09 -1.38629e-09 -4.17759e-10) (1.95301e-09 -1.96832e-09 -9.51094e-10) (2.54752e-09 -2.95707e-09 -1.56001e-09) (3.58106e-09 -3.37597e-09 -1.80125e-09) (4.07395e-09 -3.70911e-09 -3.31118e-09) (4.30696e-09 -4.52762e-09 -3.75389e-09) (5.14071e-09 -5.06099e-09 -4.45362e-09) (5.29138e-09 -5.51861e-09 -4.46714e-09) (5.44781e-09 -5.84455e-09 -5.15514e-09)
2050          (1.76496e-10 -1.96741e-10 1.21896e-11) (5.6711e-10 -8.97548e-10 -6.78338e-10) (1.35858e-09 -1.4352e-09 -9.98693e-10) (1.9334e-09 -2.12885e-09 -1.40314e-09) (2.55121e-09 -2.72139e-09 -1.96078e-09) (3.4722e-09 -3.50003e-09 -1.96209e-09) (4.33982e-09 -4.07697e-09 -2.80558e-09) (4.37219e-09 -4.49721e-09 -3.58785e-09) (4.96413e-09 -4.82275e-09 -3.92052e-09) (5.30682e-09 -5.32334e-09 -4.29913e-09) (5.46213e-09 -5.6481e-09 -3.70506e-09)
2100          (7.9816e-11 -3.38721e-11 -1.39229e-10) (6.60133e-10 -5.06216e-10 -4.18437e-10) (1.30043e-09 -1.44208e-09 -2.36975e-10) (2.05241e-09 -1.98101e-09 -4.22023e-10) (2.58721e-09 -2.67797e-09 -1.06093e-09) (3.37288e-09 -3.34673e-09 -1.68428e-09) (4.17297e-09 -3.65777e-09 -1.44777e-09) (4.58968e-09 -4.19784e-09 -2.36831e-09) (4.85682e-09 -4.81216e-09 -2.78729e-09) (5.40517e-09 -5.25086e-09 -3.42632e-09) (5.35297e-09 -5.14286e-09 -3.54491e-09)
2150          (1.68896e-10 5.84756e-11 -2.12864e-10) (6.31737e-10 -4.45998e-10 -7.27413e-10) (1.43294e-09 -1.15287e-09 -1.3543e-09) (1.89412e-09 -1.96967e-09 -1.6811e-09) (2.84146e-09 -2.98769e-09 -1.51078e-09) (3.35348e-09 -3.49718e-09 -2.4569e-09) (4.32223e-09 -3.95817e-09 -2.35615e-09) (4.64099e-09 -4.50495e-09 -2.62058e-09) (4.96835e-09 -5.13104e-09 -2.88106e-09) (5.26729e-09 -5.43659e-09 -3.43121e-09) (5.55279e-09 -5.67004e-09 -4.72796e-09)
2200          (2.1214e-10 -8.99306e-11 -1.99117e-10) (7.26042e-10 -7.79003e-10 -3.97376e-10) (1.3375e-09 -1.31113e-09 -1.09711e-09) (2.15685e-09 -1.93872e-09 -1.53656e-09) (2.68629e-09 -2.80512e-09 -1.54522e-09) (3.32243e-09 -3.69882e-09 -2.15989e-09) (3.78398e-09 -4.07968e-09 -2.47959e-09) (4.6477e-09 -4.66673e-09 -3.57315e-09) (4.95776e-09 -4.98637e-09 -3.21647e-09) (5.35857e-09 -5.61768e-09 -3.77747e-09) (5.35534e-09 -5.48644e-09 -4.8918e-09)
2250          (3.22526e-11 -1.62957e-10 -2.66505e-10) (4.42509e-10 -8.73788e-10 -3.91561e-10) (1.47571e-09 -1.37402e-09 -4.92986e-10) (1.94201e-09 -2.1214e-09 -5.94334e-10) (2.55989e-09 -2.78973e-09 -9.46141e-10) (3.04927e-09 -3.36344e-09 -2.01827e-09) (3.90805e-09 -4.13876e-09 -2.54542e-09) (4.55751e-09 -4.62962e-09 -3.25878e-09) (4.77339e-09 -5.08508e-09 -3.22948e-09) (5.36138e-09 -5.53156e-09 -3.23227e-09) (5.39994e-09 -5.32479e-09 -3.46075e-09)
2300          (1.08999e-10 -6.39222e-11 -1.63813e-10) (9.64587e-10 -1.04756e-09 2.15058e-10) (1.46371e-09 -1.25932e-09 2.28344e-11) (1.94441e-09 -2.04656e-09 -6.10883e-10) (2.70115e-09 -2.67875e-09 -1.59227e-09) (3.41679e-09 -3.12293e-09 -1.25419e-09) (4.25209e-09 -3.9009e-09 -1.49321e-09) (4.47497e-09 -4.63125e-09 -1.63868e-09) (4.79063e-09 -4.94014e-09 -1.81705e-09) (5.29372e-09 -5.28697e-09 -1.89778e-09) (5.697e-09 -5.3965e-09 -3.01935e-09)
2350          (1.46856e-10 -9.27013e-11 -7.25744e-11) (5.96585e-10 -7.22791e-10 2.68973e-10) (1.37022e-09 -1.3803e-09 -1.74423e-09) (1.98878e-09 -1.88692e-09 -2.44015e-09) (2.63726e-09 -2.87857e-09 -2.57215e-09) (3.32431e-09 -3.52035e-09 -2.2746e-09) (3.95694e-09 -3.82706e-09 -3.35825e-09) (4.32641e-09 -4.4984e-09 -2.87942e-09) (4.88669e-09 -5.04538e-09 -3.55663e-09) (5.36199e-09 -5.50212e-09 -3.7524e-09) (5.47738e-09 -5.65354e-09 -4.48973e-09)
2400          (2.53535e-11 -5.01149e-11 -3.16076e-10) (6.10591e-10 -8.69121e-10 -4.14249e-10) (1.55461e-09 -1.37853e-09 -8.41493e-10) (2.11779e-09 -2.1586e-09 -1.49922e-09) (2.807e-09 -2.61412e-09 -2.71758e-09) (3.37441e-09 -3.29495e-09 -3.10405e-09) (3.97974e-09 -3.90098e-09 -3.15641e-09) (4.60092e-09 -4.43638e-09 -2.55151e-09) (4.94405e-09 -5.05918e-09 -2.20905e-09) (5.43724e-09 -5.60173e-09 -3.25989e-09) (5.74415e-09 -5.66863e-09 -3.81604e-09)
2450          (1.60627e-10 2.06627e-12 2.52218e-10) (6.09482e-10 -6.51559e-10 5.76345e-10) (1.27486e-09 -1.36483e-09 8.31958e-11) (2.06304e-09 -1.89507e-09 3.71014e-10) (3.00405e-09 -2.93749e-09 5.64516e-10) (3.52848e-09 -3.65942e-09 -1.34915e-10) (4.07232e-09 -3.87553e-09 1.58885e-10) (4.4617e-09 -4.61132e-09 -1.00277e-09) (4.9676e-09 -4.95529e-09 -1.22367e-09) (5.40222e-09 -5.55987e-09 -1.9119e-09) (5.29252e-09 -5.51985e-09 -2.07469e-09)
2500          (-6.68281e-11 -1.0017e-10 -1.81255e-10) (4.86666e-10 -8.96804e-10 -5.84634e-10) (1.26533e-09 -1.38667e-09 -1.08932e-10) (2.10626e-09 -2.00022e-09 -1.14526e-09) (2.75523e-09 -2.85811e-09 -8.18011e-10) (3.42362e-09 -3.43289e-09 -2.28558e-09) (4.20661e-09 -4.01918e-09 -2.62716e-09) (4.64883e-09 -4.77294e-09 -2.15926e-09) (5.1814e-09 -5.15492e-09 -2.76203e-09) (5.52476e-09 -5.92288e-09 -2.75781e-09) (5.65759e-09 -5.85285e-09 -2.59508e-09)
2550          (1.42546e-10 -1.36707e-10 -8.4607e-13) (6.76931e-10 -5.48014e-10 -6.97649e-10) (1.54721e-09 -1.50286e-09 -1.80009e-09) (2.05406e-09 -1.8175e-09 -2.02023e-09) (2.72603e-09 -2.50772e-09 -3.35343e-09) (3.3789e-09 -3.23526e-09 -4.14009e-09) (4.12268e-09 -4.00502e-09 -4.00113e-09) (4.43331e-09 -4.40585e-09 -4.36622e-09) (5.07433e-09 -4.96811e-09 -5.03308e-09) (5.34607e-09 -5.17994e-09 -4.76029e-09) (5.77578e-09 -5.69829e-09 -5.52419e-09)
2600          (1.82565e-10 -1.62536e-10 -1.90634e-10) (3.48627e-10 -6.55315e-10 4.15679e-12) (1.36111e-09 -1.30325e-09 -7.0083e-10) (1.91046e-09 -1.83176e-09 -2.19835e-09) (2.73405e-09 -2.68026e-09 -1.93509e-09) (3.37851e-09 -3.40045e-09 -3.07083e-09) (3.87581e-09 -4.03485e-09 -3.2818e-09) (4.4257e-09 -4.42752e-09 -4.47104e-09) (5.04836e-09 -4.91934e-09 -4.17327e-09) (5.40492e-09 -5.33436e-09 -4.7332e-09) (5.76501e-09 -5.37209e-09 -5.35657e-09)
2650          (6.28191e-11 -8.83085e-11 -1.9384e-10) (6.11112e-10 -7.21227e-10 1.12981e-10) (1.57954e-09 -1.3933e-09 -9.26307e-10) (1.88812e-09 -1.92604e-09 -1.39914e-09) (2.75937e-09 -3.09895e-09 -2.04635e-09) (3.3983e-09 -3.45621e-09 -1.8773e-09) (3.97077e-09 -3.80072e-09 -1.5807e-09) (4.86284e-09 -4.34095e-09 -1.90896e-09) (5.0112e-09 -4.80429e-09 -2.90633e-09) (5.53204e-09 -5.20171e-09 -3.35555e-09) (5.45233e-09 -5.63091e-09 -3.59761e-09)
2700          (8.33921e-11 -1.33674e-10 -1.75813e-10) (9.00573e-10 -8.54893e-10 -2.47742e-10) (1.24039e-09 -1.40166e-09 -1.28522e-09) (2.00869e-09 -2.32432e-09 -1.30584e-09) (2.5735e-09 -2.84487e-09 -1.21074e-09) (3.19059e-09 -3.56653e-09 -2.11291e-09) (3.9941e-09 -4.32689e-09 -3.06558e-09) (4.58582e-09 -4.7196e-09 -3.42323e-09) (5.10639e-09 -4.8081e-09 -3.57076e-09) (5.34072e-09 -5.47114e-09 -4.31477e-09) (5.26644e-09 -5.32817e-09 -4.47829e-09)
2750          (-1.01557e-10 -1.52352e-10 2.6744e-10) (5.13201e-10 -7.77321e-10 -2.77604e-10) (1.20946e-09 -1.54886e-09 -8.43278e-10) (2.04728e-09 -2.20867e-09 -7.44025e-10) (2.88834e-09 -2.81282e-09 -1.94339e-09) (3.29936e-09 -3.41409e-09 -2.71273e-09) (4.24588e-09 -3.96702e-09 -3.34088e-09) (4.5212e-09 -4.57958e-09 -4.27119e-09) (5.06152e-09 -5.0625e-09 -3.98088e-09) (5.19439e-09 -5.323e-09 -5.09543e-09) (5.259e-09 -5.56136e-09 -5.53681e-09)
2800          (-3.21997e-12 -1.78423e-11 5.68467e-11) (6.2402e-10 -6.30432e-10 8.4048e-11) (1.46852e-09 -1.53936e-09 -2.15509e-11) (2.29528e-09 -2.06715e-09 6.40767e-11) (2.48946e-09 -2.71065e-09 -1.58229e-10) (3.39377e-09 -3.4559e-09 -6.5789e-10) (3.8899e-09 -3.72936e-09 -1.0366e-09) (4.50614e-09 -4.76334e-09 -4.23269e-10) (5.22589e-09 -5.10696e-09 -8.85226e-10) (5.22343e-09 -5.22702e-09 -1.97521e-09) (5.55837e-09 -5.39084e-09 -2.24945e-09)
2850          (-7.9114e-11 -4.02313e-11 -1.20322e-10) (5.04583e-10 -3.59274e-10 -3.72368e-10) (1.30236e-09 -1.37115e-09 -6.65725e-10) (1.96749e-09 -2.19624e-09 -2.26745e-09) (2.52564e-09 -2.75375e-09 -2.03438e-09) (3.51494e-09 -3.60026e-09 -3.98813e-09) (3.89483e-09 -4.09814e-09 -4.14894e-09) (4.62705e-09 -4.78608e-09 -5.04509e-09) (5.02338e-09 -5.1828e-09 -5.50004e-09) (5.30035e-09 -5.2357e-09 -5.68181e-09) (5.68401e-09 -5.2773e-09 -6.25905e-09)
2900          (-6.48864e-11 -8.97444e-11 9.0156e-11) (6.09747e-10 -7.87521e-10 -2.37717e-10) (1.22975e-09 -1.44141e-09 -1.10404e-09) (2.01895e-09 -1.96163e-09 -1.38133e-09) (2.6311e-09 -2.81978e-09 -1.35275e-09) (3.39912e-09 -3.41676e-09 -2.02589e-09) (3.83068e-09 -3.84999e-09 -2.19802e-09) (4.62533e-09 -4.56109e-09 -2.72376e-09) (5.04264e-09 -4.98212e-09 -3.94051e-09) (5.37827e-09 -5.13448e-09 -4.0872e-09) (5.30757e-09 -5.25184e-09 -3.99016e-09)
2950          (-1.60741e-10 -6.59224e-11 1.37883e-10) (5.20513e-10 -6.78249e-10 -3.27681e-10) (1.35249e-09 -1.25033e-09 -9.20127e-10) (2.0603e-09 -2.0043e-09 -6.18189e-10) (2.89686e-09 -2.83837e-09 -1.24669e-09) (3.43279e-09 -3.31728e-09 -2.39067e-09) (3.80407e-09 -3.93211e-09 -2.23604e-09) (4.55624e-09 -4.66317e-09 -2.62814e-09) (5.14255e-09 -5.01821e-09 -3.82239e-09) (5.34623e-09 -5.3833e-09 -4.62015e-09) (5.34736e-09 -5.83823e-09 -3.83665e-09)
3000          (1.58494e-10 -1.82837e-11 -6.77128e-11) (7.79671e-10 -5.44773e-10 6.98673e-12) (1.69709e-09 -9.77302e-10 -6.2686e-10) (2.13256e-09 -2.16493e-09 -1.40643e-09) (2.80025e-09 -2.83428e-09 -1.51837e-09) (3.52603e-09 -3.52603e-09 -2.39322e-09) (4.15173e-09 -4.23997e-09 -2.64987e-09) (4.46382e-09 -4.66929e-09 -4.01696e-09) (5.15111e-09 -5.27705e-09 -3.9146e-09) (5.73567e-09 -5.32184e-09 -4.07161e-09) (5.86971e-09 -5.44301e-09 -5.98485e-09)
3050          (1.57719e-11 -4.01711e-11 -3.08555e-11) (6.35009e-10 -5.50814e-10 -5.97872e-10) (1.3542e-09 -1.17864e-09 -6.86357e-10) (2.22594e-09 -2.15632e-09 -2.26206e-09) (2.65371e-09 -2.90235e-09 -1.78764e-09) (3.37105e-09 -3.37683e-09 -2.2752e-09) (3.91372e-09 -4.08275e-09 -2.40439e-09) (4.39108e-09 -4.82371e-09 -2.80792e-09) (4.78533e-09 -4.91854e-09 -2.90187e-09) (5.43993e-09 -5.55047e-09 -3.21057e-09) (5.56137e-09 -5.54682e-09 -3.41644e-09)
3100          (-2.29751e-11 -1.89549e-10 1.59596e-10) (4.35089e-10 -7.08462e-10 3.93325e-10) (1.57508e-09 -1.38942e-09 -7.59022e-10) (2.08371e-09 -2.17827e-09 -1.92664e-09) (2.98172e-09 -2.61301e-09 -1.91779e-09) (3.56421e-09 -3.55961e-09 -2.07032e-09) (4.17328e-09 -4.17603e-09 -2.80359e-09) (4.69125e-09 -4.54278e-09 -2.83862e-09) (5.28155e-09 -5.09089e-09 -3.62419e-09) (5.56162e-09 -5.48018e-09 -3.53805e-09) (5.6641e-09 -5.6192e-09 -4.25507e-09)
3150          (7.31645e-11 -1.54791e-10 -3.7971e-10) (6.71455e-10 -9.59209e-10 3.38086e-10) (1.49843e-09 -1.33514e-09 -2.16709e-10) (2.00478e-09 -1.96686e-09 -2.81854e-10) (2.72925e-09 -2.90643e-09 -3.98734e-11) (3.20302e-09 -3.74786e-09 1.90573e-10) (4.11367e-09 -4.09632e-09 -2.68014e-10) (4.82718e-09 -4.65982e-09 -1.3507e-09) (5.17787e-09 -5.154e-09 -2.01685e-09) (5.51595e-09 -5.65996e-09 -2.06807e-09) (5.65165e-09 -5.6991e-09 -3.20283e-09)
3200          (-2.80896e-11 -2.13857e-10 -3.02462e-10) (6.32451e-10 -8.21627e-10 -9.84082e-10) (1.15715e-09 -1.37996e-09 -1.14173e-09) (2.11893e-09 -2.21291e-09 -1.29826e-09) (2.71863e-09 -2.54119e-09 -6.43716e-10) (3.7009e-09 -3.62284e-09 -1.75466e-09) (4.30027e-09 -4.22676e-09 -1.69668e-09) (4.69709e-09 -4.67863e-09 -2.62583e-09) (4.91051e-09 -5.20765e-09 -3.00436e-09) (5.45923e-09 -5.6011e-09 -3.51882e-09) (5.62556e-09 -6.00116e-09 -3.80405e-09)
3250          (1.26109e-10 -3.49748e-11 1.70234e-11) (9.2308e-10 -4.13267e-10 -7.15756e-10) (1.6246e-09 -1.5601e-09 -9.94143e-10) (1.98935e-09 -1.78619e-09 -1.53372e-09) (2.67215e-09 -2.82463e-09 -1.90773e-09) (3.78404e-09 -3.55337e-09 -1.76557e-09) (4.06477e-09 -4.08461e-09 -2.55423e-09) (4.64125e-09 -4.44071e-09 -2.75278e-09) (5.19588e-09 -4.9712e-09 -4.29597e-09) (5.43105e-09 -5.36793e-09 -4.24906e-09) (5.32693e-09 -5.55506e-09 -4.96953e-09)