# Probe 0 (0 0 0)
# Time        0            
1             500          
2             499.575      
3             505.701      
4             511.807      
5             517.891      
6             523.954      
7             529.995      
8             536.012      
9             542.005      
10            547.974      
11            553.917      
12            559.835      
13            565.726      
14            571.589      
15            577.424      
16            583.23       
17            589.007      
18            594.753      
19            600.467      
20            606.15       
21            611.801      
22            617.418      
23            623          
24            628.548      
25            634.061      
26            639.537      
27            644.976      
28            650.377      
29            655.74       
30            661.064      
31            666.349      
32            671.593      
33            676.795      
34            681.956      
35            687.075      
36            692.151      
37            697.183      
38            702.172      
39            707.115      
40            712.013      
41            716.866      
42            721.672      
43            726.432      
44            731.144      
45            735.809      
46            740.425      
47            744.993      
48            749.512      
49            753.982      
50            758.402      
51            762.772      
52            767.092      
53            771.361      
54            775.579      
55            779.747      
56            783.863      
57            787.928      
58            791.941      
59            795.903      
60            799.812      
61            803.67       
62            807.476      
63            811.23       
64            814.932      
65            818.582      
66            822.18       
67            825.726      
68            829.22       
69            832.662      
70            836.053      
71            839.392      
72            842.68       
73            845.917      
74            849.103      
75            852.238      
76            855.323      
77            858.358      
78            861.343      
79            864.278      
80            867.164      
81            870.001      
82            872.79       
83            875.53       
84            878.223      
85            880.868      
86            883.466      
87            886.017      
88            888.522      
89            890.982      
90            893.396      
91            895.766      
92            898.091      
93            900.372      
94            902.61       
95            904.805      
96            906.958      
97            909.069      
98            911.139      
99            913.168      
100           915.157      
101           917.106      
102           919.016      
103           920.888      
104           922.721      
105           924.517      
106           926.276      
107           927.998      
108           929.685      
109           931.336      
110           932.952      
111           934.535      
112           936.084      
113           937.599      
114           939.082      
115           940.533      
116           941.953      
117           943.342      
118           944.7        
119           946.028      
120           947.328      
121           948.598      
122           949.84       
123           951.055      
124           952.242      
125           953.402      
126           954.536      
127           955.645      
128           956.728      
129           957.787      
130           958.821      
131           959.832      
132           960.819      
133           961.783      
134           962.725      
135           963.645      
136           964.544      
137           965.422      
138           966.279      
139           967.116      
140           967.933      
141           968.731      
142           969.509      
143           970.27       
144           971.012      
145           971.737      
146           972.444      
147           973.134      
148           973.808      
149           974.465      
150           975.107      
151           975.733      
152           976.344      
153           976.94       
154           977.521      
155           978.089      
156           978.642      
157           979.182      
158           979.709      
159           980.223      
160           980.724      
161           981.213      
162           981.69       
163           982.155      
164           982.608      
165           983.051      
166           983.482      
167           983.903      
168           984.313      
169           984.713      
170           985.103      
171           985.483      
172           985.854      
173           986.216      
174           986.568      
175           986.912      
176           987.247      
177           987.573      
178           987.892      
179           988.202      
180           988.505      
181           988.8        
182           989.087      
183           989.368      
184           989.641      
185           989.907      
186           990.167      
187           990.42       
188           990.666      
189           990.906      
190           991.141      
191           991.369      
192           991.591      
193           991.808      
194           992.019      
195           992.225      
196           992.426      
197           992.621      
198           992.812      
199           992.997      
200           993.178      
201           993.355      
202           993.526      
203           993.694      
204           993.857      
205           994.016      
206           994.17       
207           994.321      
208           994.468      
209           994.612      
210           994.751      
211           994.887      
212           995.02       
213           995.149      
214           995.274      
215           995.397      
216           995.516      
217           995.632      
218           995.746      
219           995.856      
220           995.964      
221           996.068      
222           996.17       
223           996.27       
224           996.367      
225           996.461      
226           996.553      
227           996.642      
228           996.73       
229           996.815      
230           996.897      
231           996.978      
232           997.056      
233           997.133      
234           997.207      
235           997.28       
236           997.351      
237           997.42       
238           997.487      
239           997.552      
240           997.616      
241           997.678      
242           997.738      
243           997.797      
244           997.854      
245           997.91       
246           997.965      
247           998.018      
248           998.069      
249           998.119      
250           998.168      
251           998.216      
252           998.263      
253           998.308      
254           998.352      
255           998.395      
256           998.437      
257           998.477      
258           998.517      
259           998.556      
260           998.593      
261           998.63       
262           998.666      
263           998.7        
264           998.734      
265           998.767      
266           998.799      
267           998.831      
268           998.861      
269           998.891      
270           998.92       
271           998.948      
272           998.975      
273           999.002      
274           999.028      
275           999.053      
276           999.078      
277           999.102      
278           999.125      
279           999.148      
280           999.17       
281           999.192      
282           999.213      
283           999.234      
284           999.254      
285           999.273      
286           999.292      
287           999.311      
288           999.328      
289           999.346      
290           999.363      
291           999.38       
292           999.396      
293           999.412      
294           999.427      
