# Probe 0 (0.0015 0.0015 0)
# Probe 1 (0.0015 0.0015 0.01)
# Probe 2 (0.0015 0.0015 0.02)
# Probe 3 (0.0015 0.0015 0.03)
# Probe 4 (0.0015 0.0015 0.04)
# Probe 5 (0.0015 0.0015 0.05)
# Probe 6 (0.0015 0.0015 0.06)
# Probe 7 (0.0015 0.0015 0.07)
# Probe 8 (0.0015 0.0015 0.08)
# Probe 9 (0.0015 0.0015 0.09)
# Probe 10 (0.0015 0.0015 0.1)
# Time        0             1             2             3             4             5             6             7             8             9             10           
50            172584        172584        123587        92428.1       77031         70928.7       67918.5       67693.4       67194.2       63558.2       45894.1      
100           188682        188682        150314        118633        96083.4       82632.6       70787.5       67720.5       65294.5       57852.8       37441.2      
150           195917        195917        163944        135549        112446        95573.4       76169.9       68420         63162.6       53306.4       33037.9      
200           200248        200248        172375        146754        124522        106492        82546.7       69972.5       61517.3       49924.1       30350.6      
250           203138        203138        178078        154549        133337        115064        88742.6       72154.6       60571.7       47491.7       28567.4      
300           205178        205178        182135        160185        139896        121742        94248.5       74647.8       60278.2       45816.9       27337.9      
350           206674        206674        185128        164391        144888        126988        98961.2       77199.3       60495         44742.7       26485.8      
400           207805        207805        187401        167613        148769        131160        102940        79661.3       61072.5       44136.5       25908.3      
450           208681        208681        189168        170137        151844        134524        106295        81961.3       61885.4       43888.6       25538.1      
500           209375        209375        190571        172152        154321        137272        109136        84073.7       62838.5       43909.1       25326.5      
550           209934        209934        191705        173787        156349        139549        111558        85997.5       63864.2       44125.6       25236.6      
600           210392        210392        192636        175136        158033        141459        113641        87743.9       64915.9       44480.6       25238.8      
650           210773        210773        193411        176265        159450        143081        115448        89328.2       65962.4       44929.3       25309.6      
700           211094        211094        194066        177221        160657        144473        117027        90767.1       66983.3       45437         25429.8      
750           211368        211368        194626        178041        161698        145682        118420        92075.9       67965.7       45977.6       25584.2      
800           211604        211604        195110        178751        162603        146741        119656        93268.8       68901.9       46531.5       25760.9      
850           211810        211810        195532        179374        163399        147676        120761        94357.9       69787.5       47084.3       25950.4      
900           211991        211991        195905        179923        164104        148508        121753        95354         70620.5       47625.8       26145.7      
950           212152        212152        196235        180411        164732        149252        122648        96266.3       71400.8       48148.9       26341.3      
1000          212295        212295        196530        180848        165296        149922        123459        97102.7       72129.1       48648.8       26533.5      
1050          212424        212424        196795        181241        165804        150527        124196        97870.2       72806.9       49122.7       26719.5      
1100          212540        212540        197034        181596        166264        151076        124867        98574.9       73436.2       49569         26897.4      
1150          212646        212646        197251        181918        166681        151576        125480        99222.2       74019.3       49987.1       27066.2      
1200          212741        212741        197448        182211        167061        152031        126040        99816.9       74558.7       50377.2       27225.1      
1250          212828        212828        197627        182478        167407        152446        126553        100363        75056.9       50740         27374        
1300          212903        212903        197783        182710        167710        152813        127021        100865        75516.4       51076.2       27512.8      
1350          212973        212973        197927        182925        167992        153154        127447        101324        75939.7       51387.4       27641.9      
1400          213038        213038        198061        183125        168253        153468        127838        101746        76329.1       51674.7       27761.4      
1450          213098        213098        198185        183309        168493        153758        128197        102133        76686.9       51939.4       27872        
1500          213153        213153        198299        183480        168715        154024        128527        102488        77015.8       52183.1       27973.9      
1550          213204        213204        198404        183636        168919        154269        128830        102815        77318         52407.4       28067.9      
1600          213251        213251        198501        183781        169106        154494        129108        103114        77595.3       52613.2       28154.3      
1650          213295        213295        198590        183913        169278        154701        129364        103389        77849.8       52802.1       28233.6      
1700          213333        213333        198670        184032        169433        154887        129598        103642        78083.7       52975.8       28306.6      
1750          213368        213368        198742        184140        169575        155060        129812        103873        78298.1       53135         28373.5      
1800          213401        213401        198810        184242        169707        155219        130007        104085        78494.7       53281.1       28434.9      
1850          213430        213430        198870        184331        169824        155359        130187        104278        78674.5       53414.9       28491.2      
1900          213458        213458        198929        184418        169937        155495        130352        104456        78839.3       53537.4       28542.7      
1950          213483        213483        198979        184493        170034        155613        130503        104619        78990.3       53649.7       28590        
2000          213506        213506        199027        184565        170129        155727        130641        104768        79128.6       53752.5       28633.2      
2050          213527        213527        199070        184629        170211        155826        130767        104905        79255.3       53846.7       28672.9      
2100          213547        213547        199111        184690        170291        155923        130883        105030        79371.3       53932.9       28709.2      
2150          213562        213562        199143        184738        170354        155999        130989        105144        79477.6       54012         28742.5      
2200          213578        213578        199176        184787        170419        156078        131084        105248        79574.4       54084         28772.8      
2250          213593        213593        199208        184834        170480        156152        131172        105343        79662.9       54149.9       28800.6      
2300          213606        213606        199234        184873        170531        156214        131253        105431        79744         54210.3       28826        
2350          213617        213617        199257        184908        170577        156270        131326        105511        79818.5       54265.7       28849.3      
2400          213627        213627        199277        184938        170617        156319        131392        105584        79886.9       54316.6       28870.7      
2450          213636        213636        199297        184968        170656        156367        131453        105651        79949.2       54363.1       28890.3      
2500          213646        213646        199318        184999        170697        156416        131509        105711        80005.5       54405.2       28908.1      
2550          213656        213656        199336        185027        170733        156458        131561        105767        80057.2       54443.8       28924.4      
2600          213664        213664        199354        185053        170767        156498        131608        105816        80103.5       54478.4       28939        
2650          213670        213670        199366        185070        170789        156527        131650        105863        80146.5       54510.3       28952.5      
2700          213676        213676        199378        185089        170814        156557        131688        105905        80185.7       54539.6       28964.8      
2750          213680        213680        199387        185102        170832        156580        131722        105943        80221.9       54566.5       28976.2      
2800          213685        213685        199398        185119        170855        156608        131752        105977        80253.6       54590.4       28986.3      
2850          213690        213690        199408        185135        170874        156631        131782        106008        80283.3       54612.7       28995.7      
2900          213694        213694        199416        185146        170889        156650        131808        106037        80309.6       54632.3       29004        
2950          213698        213698        199425        185160        170907        156671        131832        106063        80333.7       54650.3       29011.7      
3000          213703        213703        199434        185173        170924        156691        131855        106087        80356         54667         29018.7      
3050          213706        213706        199440        185182        170936        156705        131876        106110        80377.1       54682.6       29025.3      
3100          213708        213708        199445        185190        170947        156719        131894        106129        80395.2       54696.1       29031        
3150          213712        213712        199452        185201        170961        156735        131911        106147        80412.1       54708.7       29036.3      
3200          213715        213715        199459        185210        170973        156749        131927        106164        80427.4       54720.2       29041.2      
3250          213717        213717        199463        185216        170980        156759        131941        106179        80441.3       54730.4       29045.5      
3300          213719        213719        199467        185222        170988        156768        131953        106193        80454.3       54740         29049.5      
3350          213721        213721        199473        185231        170999        156781        131965        106205        80465.4       54748.3       29053        
3400          213724        213724        199478        185239        171009        156792        131978        106217        80476.3       54756.4       29056.4      
3450          213726        213726        199482        185244        171016        156800        131988        106228        80486         54763.5       29059.5      
3500          213727        213727        199485        185249        171022        156807        131998        106238        80495.5       54770.4       29062.3      
3550          213729        213729        199487        185252        171026        156812        132005        106247        80503.3       54776.1       29064.7      
3600          213730        213730        199489        185255        171030        156818        132012        106255        80511.1       54781.9       29067.1      
3650          213731        213731        199492        185259        171035        156823        132020        106263        80518.7       54787.6       29069.5      
3700          213732        213732        199493        185261        171038        156827        132025        106269        80524.2       54791.7       29071.2      
3750          213733        213733        199495        185264        171042        156832        132031        106276        80530.7       54796.6       29073.3      
3800          213733        213733        199497        185267        171045        156836        132036        106282        80536.1       54800.6       29075        
3850          213734        213734        199498        185269        171048        156840        132041        106286        80540.3       54803.8       29076.3      
3900          213736        213736        199502        185274        171055        156848        132045        106290        80544.2       54806.7       29077.5      
3950          213736        213736        199503        185275        171057        156850        132050        106295        80547.9       54809.6       29078.8      
4000          213737        213737        199504        185277        171059        156852        132054        106299        80551.9       54812.5       29080        
4050          213737        213737        199505        185279        171061        156854        132057        106303        80555         54814.6       29080.9      
4100          213738        213738        199506        185280        171063        156857        132060        106306        80558.1       54816.9       29081.9      
4150          213738        213738        199507        185281        171065        156859        132063        106309        80561.2       54819.2       29082.8      
4200          213738        213738        199507        185282        171066        156860        132065        106311        80563.3       54820.8       29083.5      
4250          213739        213739        199508        185283        171067        156862        132067        106314        80565.3       54822.3       29084.2      
4300          213739        213739        199509        185284        171068        156863        132069        106316        80567.4       54823.9       29084.8      
4350          213739        213739        199509        185285        171070        156865        132070        106318        80569.4       54825.5       29085.5      
4400          213740        213740        199510        185286        171070        156866        132071        106319        80570.4       54826.2       29085.8      
4450          213740        213740        199510        185287        171071        156867        132073        106321        80572.5       54827.8       29086.5      
4500          213740        213740        199511        185287        171072        156868        132074        106322        80573.5       54828.6       29086.9      
4550          213740        213740        199511        185288        171073        156869        132075        106323        80574.5       54829.4       29087.3      
4600          213740        213740        199511        185288        171073        156869        132075        106323        80574.5       54829.4       29087.3      
4650          213740        213740        199511        185288        171073        156869        132076        106324        80575.5       54830.2       29087.6      
4700          213740        213740        199511        185288        171073        156869        132076        106324        80575.5       54830.2       29087.6      
4750          213740        213740        199511        185288        171073        156869        132076        106324        80575.5       54830.2       29087.6      
4800          213740        213740        199511        185288        171073        156869        132076        106324        80575.5       54830.2       29087.6      
4850          213740        213740        199511        185288        171073        156869        132076        106324        80575.5       54830.2       29087.6      
4900          213740        213740        199511        185288        171073        156869        132076        106324        80575.5       54830.2       29087.6      
4950          213740        213740        199511        185288        171073        156869        132076        106324        80575.5       54830.2       29087.6      
5000          213740        213740        199511        185288        171073        156869        132076        106324        80575.5       54830.2       29087.6      
5050          213740        213740        199511        185288        171073        156869        132076        106324        80575.5       54830.2       29087.6      
5100          213740        213740        199511        185288        171073        156869        132076        106324        80575.5       54830.2       29087.6      
5150          213740        213740        199511        185288        171073        156869        132076        106324        80575.5       54830.2       29087.6      
5200          213740        213740        199511        185288        171073        156869        132076        106324        80575.5       54830.2       29087.6      
5250          213740        213740        199511        185288        171073        156869        132076        106324        80575.5       54830.2       29087.6      
5300          213740        213740        199511        185288        171073        156869        132076        106324        80575.5       54830.2       29087.6      
5350          213740        213740        199511        185288        171073        156869        132076        106324        80575.5       54830.2       29087.6      
5400          213740        213740        199511        185288        171073        156869        132076        106324        80575.5       54830.2       29087.6      
5450          213740        213740        199511        185288        171073        156869        132076        106324        80575.5       54830.2       29087.6      
5500          213740        213740        199511        185288        171073        156869        132076        106324        80575.5       54830.2       29087.6      
5550          213740        213740        199511        185288        171073        156869        132076        106324        80575.5       54830.2       29087.6      
5600          213740        213740        199511        185288        171073        156869        132076        106324        80575.5       54830.2       29087.6      
5650          213740        213740        199511        185288        171073        156869        132076        106324        80575.5       54830.2       29087.6      
5700          213740        213740        199511        185288        171073        156869        132076        106324        80575.5       54830.2       29087.6      
5750          213740        213740        199511        185288        171073        156869        132076        106324        80575.5       54830.2       29087.6      
5800          213740        213740        199511        185288        171073        156869        132076        106324        80575.5       54830.2       29087.6      
5850          213740        213740        199511        185288        171073        156869        132076        106324        80575.5       54830.2       29087.6      
5900          213740        213740        199511        185288        171073        156869        132076        106324        80575.5       54830.2       29087.6      
5950          213740        213740        199511        185288        171073        156869        132076        106324        80575.5       54830.2       29087.6      
6000          213740        213740        199511        185288        171073        156869        132076        106324        80575.5       54830.2       29087.6      
6050          213740        213740        199511        185288        171073        156869        132076        106324        80575.5       54830.2       29087.6      
6100          213740        213740        199511        185288        171073        156869        132076        106324        80575.5       54830.2       29087.6      
6150          213740        213740        199511        185288        171073        156869        132076        106324        80575.5       54830.2       29087.6      
6200          213740        213740        199511        185288        171073        156869        132076        106324        80575.5       54830.2       29087.6      
6250          213740        213740        199511        185288        171073        156869        132076        106324        80575.5       54830.2       29087.6      
6300          213740        213740        199511        185288        171073        156869        132076        106324        80575.5       54830.2       29087.6      
6350          213740        213740        199511        185288        171073        156869        132076        106324        80575.5       54830.2       29087.6      
6400          213740        213740        199511        185288        171073        156869        132076        106324        80575.5       54830.2       29087.6      
6450          213740        213740        199511        185288        171073        156869        132076        106324        80575.5       54830.2       29087.6      
6500          213740        213740        199511        185288        171073        156869        132076        106324        80575.5       54830.2       29087.6      
6550          213740        213740        199511        185288        171073        156869        132076        106324        80575.5       54830.2       29087.6      
6600          213740        213740        199511        185288        171073        156869        132076        106324        80575.5       54830.2       29087.6      
6650          213740        213740        199511        185288        171073        156869        132076        106324        80575.5       54830.2       29087.6      
6700          213740        213740        199511        185288        171073        156869        132076        106324        80575.5       54830.2       29087.6      
6750          213740        213740        199511        185288        171073        156869        132076        106324        80575.5       54830.2       29087.6      
6800          213740        213740        199511        185288        171073        156869        132076        106324        80575.5       54830.2       29087.6      
6850          213740        213740        199511        185288        171073        156869        132076        106324        80575.5       54830.2       29087.6      
6900          213740        213740        199511        185288        171073        156869        132076        106324        80575.5       54830.2       29087.6      
6950          213740        213740        199511        185288        171073        156869        132076        106324        80575.5       54830.2       29087.6      
7000          213740        213740        199511        185288        171073        156869        132076        106324        80575.5       54830.2       29087.6      
7050          213740        213740        199511        185288        171073        156869        132076        106324        80575.5       54830.2       29087.6      
7100          213740        213740        199511        185288        171073        156869        132076        106324        80575.5       54830.2       29087.6      
7150          213740        213740        199511        185288        171073        156869        132076        106324        80575.5       54830.2       29087.6      
7200          213740        213740        199511        185288        171073        156869        132076        106324        80575.5       54830.2       29087.6      
7250          213740        213740        199511        185288        171073        156869        132076        106324        80575.5       54830.2       29087.6      
7300          213740        213740        199511        185288        171073        156869        132076        106324        80575.5       54830.2       29087.6      
7350          213740        213740        199511        185288        171073        156869        132076        106324        80575.5       54830.2       29087.6      
7400          213740        213740        199511        185288        171073        156869        132076        106324        80575.5       54830.2       29087.6      
7450          213740        213740        199511        185288        171073        156869        132076        106324        80575.5       54830.2       29087.6      
7500          213740        213740        199511        185288        171073        156869        132076        106324        80575.5       54830.2       29087.6      
7550          213740        213740        199511        185288        171073        156869        132076        106324        80575.5       54830.2       29087.6      
7600          213740        213740        199511        185288        171073        156869        132076        106324        80575.5       54830.2       29087.6      
7650          213740        213740        199511        185288        171073        156869        132076        106324        80575.5       54830.2       29087.6      
7700          213740        213740        199511        185288        171073        156869        132076        106324        80575.5       54830.2       29087.6      
7750          213740        213740        199511        185288        171073        156869        132076        106324        80575.5       54830.2       29087.6      
7800          213740        213740        199511        185288        171073        156869        132076        106324        80575.5       54830.2       29087.6      
7850          213740        213740        199511        185288        171073        156869        132076        106324        80575.5       54830.2       29087.6      
7900          213740        213740        199511        185288        171073        156869        132076        106324        80575.5       54830.2       29087.6      
7950          213740        213740        199511        185288        171073        156869        132076        106324        80575.5       54830.2       29087.6      
8000          213740        213740        199511        185288        171073        156869        132076        106324        80575.5       54830.2       29087.6      
8050          213740        213740        199511        185288        171073        156869        132076        106324        80575.5       54830.2       29087.6      
8100          213740        213740        199511        185288        171073        156869        132076        106324        80575.5       54830.2       29087.6      
8150          213740        213740        199511        185288        171073        156869        132076        106324        80575.5       54830.2       29087.6      
8200          213740        213740        199511        185288        171073        156869        132076        106324        80575.5       54830.2       29087.6      
8250          213740        213740        199511        185288        171073        156869        132076        106324        80575.5       54830.2       29087.6      
8300          213740        213740        199511        185288        171073        156869        132076        106324        80575.5       54830.2       29087.6      
8350          213740        213740        199511        185288        171073        156869        132076        106324        80575.5       54830.2       29087.6      
8400          213740        213740        199511        185288        171073        156869        132076        106324        80575.5       54830.2       29087.6      
8450          213740        213740        199511        185288        171073        156869        132076        106324        80575.5       54830.2       29087.6      
8500          213740        213740        199511        185288        171073        156869        132076        106324        80575.5       54830.2       29087.6      
8550          213740        213740        199511        185288        171073        156869        132076        106324        80575.5       54830.2       29087.6      
8600          213740        213740        199511        185288        171073        156869        132076        106324        80575.5       54830.2       29087.6      
8650          213740        213740        199511        185288        171073        156869        132076        106324        80575.5       54830.2       29087.6      
8700          213740        213740        199511        185288        171073        156869        132076        106324        80575.5       54830.2       29087.6      
8750          213740        213740        199511        185288        171073        156869        132076        106324        80575.5       54830.2       29087.6      