# Probe 0 (0.0015 0.0015 0)
# Probe 1 (0.0015 0.0015 0.01)
# Probe 2 (0.0015 0.0015 0.02)
# Probe 3 (0.0015 0.0015 0.03)
# Probe 4 (0.0015 0.0015 0.04)
# Probe 5 (0.0015 0.0015 0.05)
# Probe 6 (0.0015 0.0015 0.06)
# Probe 7 (0.0015 0.0015 0.07)
# Probe 8 (0.0015 0.0015 0.08)
# Probe 9 (0.0015 0.0015 0.09)
# Probe 10 (0.0015 0.0015 0.1)
# Time        0             1             2             3             4             5             6             7             8             9             10           
50            (-20.5294 -20.5294 -5.40113e+06) (-20.5294 -20.5294 -5.40113e+06) (-21.5166 -21.5166 -4.00779e+06) (-12.1821 -12.1821 -2.32779e+06) (-5.07055 -5.07055 -1.07497e+06) (-2.77881 -2.77881 -455626) (-3.26546 -3.26547 -161764) (3.80569 3.80571 -36212.6) (12.9698 12.9698 -206760) (37.7505 37.7505 -1.06501e+06) (38.2416 38.2416 -3.62088e+06)
100           (-5.27434 -5.27434 -3.99363e+06) (-5.27434 -5.27434 -3.99363e+06) (-7.97752 -7.97752 -3.50247e+06) (-8.22188 -8.22188 -2.71153e+06) (-6.34212 -6.34212 -1.8e+06) (-5.61536 -5.61536 -1.26479e+06) (-15.9069 -15.9069 -745606) (7.86451 7.86451 -274651) (16.7676 16.7676 -493389) (26.5949 26.5949 -1.39267e+06) (16.6097 16.6097 -3.02866e+06)
150           (0.0308316 0.0308316 -3.28018e+06) (0.0308316 0.0308316 -3.28018e+06) (0.163033 0.163033 -3.01842e+06) (0.262162 0.262162 -2.5749e+06) (0.183417 0.183417 -1.99878e+06) (0.0979301 0.0979301 -1.81379e+06) (-2.37814 -2.37814 -1.35767e+06) (0.620785 0.620785 -650361) (1.56237 1.56237 -755680) (2.06105 2.06105 -1.50624e+06) (1.11782 1.11782 -2.64145e+06)
200           (-5.54266 -5.54266 -2.8395e+06) (-5.54266 -5.54266 -2.8395e+06) (-8.98607 -8.98607 -2.67471e+06) (-11.0577 -11.0577 -2.39262e+06) (-11.3228 -11.3228 -2.01309e+06) (-20.0504 -20.0504 -2.09877e+06) (-65.5448 -65.5448 -1.82597e+06) (8.44808 8.44808 -1.05147e+06) (29.9135 29.9135 -1.00242e+06) (31.4473 31.4473 -1.55833e+06) (11.1633 11.1633 -2.37475e+06)
250           (-0.467883 -0.467883 -2.54153e+06) (-0.467883 -0.467883 -2.54153e+06) (-0.722348 -0.722348 -2.42944e+06) (-0.86907 -0.86907 -2.23705e+06) (-0.838165 -0.838165 -1.97425e+06) (-1.31109 -1.31109 -2.22974e+06) (-11.8655 -11.8655 -2.14549e+06) (-0.351215 -0.351215 -1.40854e+06) (4.21732 4.21732 -1.23314e+06) (4.60104 4.60104 -1.60022e+06) (1.56481 1.56481 -2.18837e+06)
300           (2.13118 2.13118 -2.32969e+06) (2.13118 2.13118 -2.32969e+06) (3.52433 3.52433 -2.24962e+06) (4.53333 4.53333 -2.11197e+06) (5.09494 5.09494 -1.92213e+06) (12.8636 12.8636 -2.28235e+06) (50.0994 50.0994 -2.35473e+06) (7.61706 7.61706 -1.69852e+06) (-12.152 -12.152 -1.44154e+06) (-14.8941 -14.8941 -1.64702e+06) (-4.54549 -4.54549 -2.05999e+06)
350           (1.5262 1.5262 -2.17344e+06) (1.5262 1.5262 -2.17344e+06) (2.5414 2.5414 -2.11413e+06) (3.3094 3.3094 -2.01199e+06) (3.81352 3.81352 -1.87015e+06) (10.4632 10.4632 -2.29634e+06) (43.7652 43.7652 -2.48943e+06) (11.0263 11.0263 -1.92331e+06) (-6.76099 -6.76099 -1.62283e+06) (-10.893 -10.893 -1.70046e+06) (-3.5896 -3.5896 -1.97534e+06)
400           (1.12621 1.12621 -2.0548e+06) (1.12621 1.12621 -2.0548e+06) (1.88669 1.88669 -2.00957e+06) (2.48088 2.48088 -1.93157e+06) (2.91414 2.91414 -1.82266e+06) (8.50871 8.50871 -2.29143e+06) (36.9735 36.9735 -2.57494e+06) (12.5306 12.5306 -2.0934e+06) (-2.34188 -2.34188 -1.77624e+06) (-7.26661 -7.26661 -1.75821e+06) (-2.75545 -2.75545 -1.92405e+06)
450           (0.853579 0.853579 -1.96254e+06) (0.853579 0.853579 -1.96254e+06) (1.43758 1.43758 -1.92722e+06) (1.90555 1.90555 -1.86623e+06) (2.27322 2.27322 -1.78068e+06) (6.9731 6.9731 -2.27742e+06) (31.2108 31.2108 -2.62811e+06) (12.9256 12.9256 -2.2205e+06) (0.79967 0.79967 -1.90364e+06) (-4.42593 -4.42593 -1.81737e+06) (-2.08846 -2.08846 -1.89821e+06)
500           (0.662922 0.662922 -1.88932e+06) (0.662922 0.662922 -1.88932e+06) (1.12173 1.12173 -1.86117e+06) (1.49703 1.49703 -1.81251e+06) (1.80918 1.80918 -1.74397e+06) (5.78061 5.78061 -2.25926e+06) (26.4993 26.4993 -2.65993e+06) (12.7055 12.7055 -2.31488e+06) (2.92312 2.92312 -2.00823e+06) (-2.27659 -2.27659 -1.8756e+06) (-1.5591 -1.5591 -1.89156e+06)
550           (0.526447 0.526447 -1.83016e+06) (0.526447 0.526447 -1.83016e+06) (0.894465 0.894465 -1.80734e+06) (1.2008 1.2008 -1.7678e+06) (1.46747 1.46747 -1.71193e+06) (4.85386 4.85386 -2.23953e+06) (22.6923 22.6923 -2.67757e+06) (12.1705 12.1705 -2.38471e+06) (4.29989 4.29989 -2.0936e+06) (-0.682019 -0.682019 -1.93138e+06) (-1.13806 -1.13806 -1.89912e+06)
600           (0.426573 0.426573 -1.7816e+06) (0.426573 0.426573 -1.7816e+06) (0.727372 0.727372 -1.76279e+06) (0.981564 0.981564 -1.73015e+06) (1.21132 1.21132 -1.68388e+06) (4.12792 4.12792 -2.21958e+06) (19.6171 19.6171 -2.68575e+06) (11.4918 11.4918 -2.43626e+06) (5.14486 5.14486 -2.16316e+06) (0.477678 0.477678 -1.98386e+06) (-0.803722 -0.803722 -1.91695e+06)
650           (0.351931 0.351931 -1.74115e+06) (0.351931 0.351931 -1.74115e+06) (0.601964 0.601964 -1.72541e+06) (0.816069 0.816069 -1.69808e+06) (1.01581 1.01581 -1.6592e+06) (3.55254 3.55254 -2.20011e+06) (17.1178 17.1178 -2.68762e+06) (10.762 10.762 -2.47426e+06) (5.61568 5.61568 -2.21995e+06) (1.30019 1.30019 -2.03264e+06) (-0.540165 -0.540165 -1.94195e+06)
700           (0.295036 0.295036 -1.70699e+06) (0.295036 0.295036 -1.70699e+06) (0.506006 0.506006 -1.69365e+06) (0.68878 0.68878 -1.67045e+06) (0.86392 0.86392 -1.63736e+06) (3.09032 3.09032 -2.18149e+06) (15.0668 15.0668 -2.68532e+06) (10.0296 10.0296 -2.50221e+06) (5.82481 5.82481 -2.2665e+06) (1.86339 1.86339 -2.07768e+06) (-0.334908 -0.334908 -1.97171e+06)
750           (0.250864 0.250864 -1.67778e+06) (0.250864 0.250864 -1.67778e+06) (0.431252 0.431252 -1.66634e+06) (0.58914 0.58914 -1.64642e+06) (0.743925 0.743925 -1.61793e+06) (2.71375 2.71375 -2.16388e+06) (13.3642 13.3642 -2.68031e+06) (9.31901 9.31901 -2.52271e+06) (5.85198 5.85198 -2.30491e+06) (2.22888 2.22888 -2.11907e+06) (-0.177631 -0.177631 -2.00434e+06)
800           (0.215981 0.215981 -1.65254e+06) (0.215981 0.215981 -1.65254e+06) (0.372031 0.372031 -1.64262e+06) (0.509847 0.509847 -1.62533e+06) (0.6476 0.6476 -1.60053e+06) (2.40267 2.40267 -2.14736e+06) (11.9338 11.9338 -2.6736e+06) (8.64171 8.64171 -2.53772e+06) (5.75399 5.75399 -2.33686e+06) (2.44519 2.44519 -2.15705e+06) (-0.059524 -0.0595241 -2.03845e+06)
850           (0.187988 0.187988 -1.63051e+06) (0.187988 0.187988 -1.63051e+06) (0.324371 0.324371 -1.62182e+06) (0.445759 0.445759 -1.60666e+06) (0.569096 0.569096 -1.58489e+06) (2.14222 2.14222 -2.13193e+06) (10.7173 10.7173 -2.66589e+06) (8.00248 8.00248 -2.54866e+06) (5.57158 5.57158 -2.36368e+06) (2.55041 2.55041 -2.19185e+06) (0.0270095 0.0270095 -2.07298e+06)
900           (0.165181 0.165181 -1.6111e+06) (0.165181 0.165181 -1.6111e+06) (0.285439 0.285439 -1.60343e+06) (0.393191 0.393191 -1.59003e+06) (0.504189 0.504189 -1.57076e+06) (1.92136 1.92136 -2.11756e+06) (9.67091 9.67091 -2.65767e+06) (7.40266 7.40266 -2.55661e+06) (5.33416 5.33416 -2.38641e+06) (2.57429 2.57429 -2.22374e+06) (0.0884815 0.0884815 -2.10714e+06)
950           (0.146331 0.146331 -1.59387e+06) (0.146331 0.146331 -1.59387e+06) (0.25318 0.25318 -1.58705e+06) (0.349461 0.349461 -1.57513e+06) (0.449787 0.449787 -1.55795e+06) (1.73181 1.73181 -2.10422e+06) (8.761 8.761 -2.64929e+06) (6.84181 6.84181 -2.56236e+06) (5.06308 5.06308 -2.40587e+06) (2.5399 2.5399 -2.25297e+06) (0.130391 0.130391 -2.1404e+06)
1000          (0.130535 0.130535 -1.57848e+06) (0.130535 0.130535 -1.57848e+06) (0.226087 0.226087 -1.57238e+06) (0.312597 0.312597 -1.5617e+06) (0.403598 0.403598 -1.5463e+06) (1.56733 1.56733 -2.09185e+06) (7.96204 7.96204 -2.64096e+06) (6.31864 6.31864 -2.56649e+06) (4.77375 4.77375 -2.4227e+06) (2.46496 2.46496 -2.27978e+06) (0.157296 0.157296 -2.17237e+06)
1050          (0.467972 0.467972 -1.56466e+06) (0.467972 0.467972 -1.56466e+06) (0.796805 0.796805 -1.55917e+06) (1.09328 1.09328 -1.54956e+06) (1.37676 1.37676 -1.53568e+06) (4.72656 4.72656 -2.0804e+06) (20.5806 20.5806 -2.63285e+06) (16.0998 16.0998 -2.56945e+06) (12.2571 12.2571 -2.43738e+06) (6.36358 6.36358 -2.30437e+06) (0.433963 0.433963 -2.20282e+06)
1100          (0.422086 0.422086 -1.55219e+06) (0.422086 0.422086 -1.55219e+06) (0.719122 0.719122 -1.54722e+06) (0.987847 0.987847 -1.53854e+06) (1.24645 1.24645 -1.52598e+06) (4.30107 4.30107 -2.06981e+06) (19.3231 19.3231 -2.62507e+06) (15.4219 15.4219 -2.57155e+06) (11.9955 11.9955 -2.4503e+06) (6.39753 6.39753 -2.32694e+06) (0.501907 0.501907 -2.2316e+06)
1150          (0.3822 0.3822 -1.54089e+06) (0.3822 0.3822 -1.54089e+06) (0.651477 0.651477 -1.53639e+06) (0.895739 0.895739 -1.52851e+06) (1.13194 1.13194 -1.51712e+06) (3.92106 3.92106 -2.06004e+06) (17.6729 17.6729 -2.61767e+06) (14.2337 14.2337 -2.57304e+06) (11.2032 11.2032 -2.46175e+06) (6.08138 6.08138 -2.34765e+06) (0.520162 0.520162 -2.25863e+06)
1200          (0.347162 0.347162 -1.53062e+06) (0.347162 0.347162 -1.53062e+06) (0.591976 0.591976 -1.52652e+06) (0.81452 0.81452 -1.51936e+06) (1.03054 1.03054 -1.509e+06) (3.5808 3.5808 -2.05102e+06) (16.174 16.174 -2.6107e+06) (13.1115 13.1115 -2.57408e+06) (10.402 10.402 -2.47198e+06) (5.70923 5.70923 -2.36668e+06) (0.516762 0.516762 -2.28391e+06)
1250          (0.316119 0.316119 -1.52126e+06) (0.316119 0.316119 -1.52126e+06) (0.539203 0.539203 -1.51753e+06) (0.742331 0.742331 -1.511e+06) (0.9401 0.9401 -1.50155e+06) (3.27441 3.27441 -2.04271e+06) (14.8151 14.8151 -2.60416e+06) (12.0705 12.0705 -2.57481e+06) (9.63365 9.63365 -2.48116e+06) (5.32994 5.32994 -2.38415e+06) (0.50202 0.50202 -2.30745e+06)
1300          (-0.0571433 -0.0571432 -1.51315e+06) (-0.0571433 -0.0571432 -1.51315e+06) (-0.155804 -0.155804 -1.50969e+06) (-0.262888 -0.262889 -1.50363e+06) (-0.36084 -0.36084 -1.49481e+06) (0.091657 0.0916569 -2.03448e+06) (5.20374 5.20374 -2.59742e+06) (4.37327 4.37327 -2.57522e+06) (3.62952 3.62952 -2.48943e+06) (2.14648 2.14648 -2.40018e+06) (0.316329 0.316329 -2.32931e+06)
1350          (-0.0608467 -0.0608467 -1.50565e+06) (-0.0608467 -0.0608467 -1.50565e+06) (-0.0293084 -0.0293084 -1.50242e+06) (-0.00475704 -0.00475702 -1.49675e+06) (-0.0334383 -0.0334383 -1.48854e+06) (0.580746 0.580746 -2.02725e+06) (6.6701 6.6701 -2.59147e+06) (5.586 5.586 -2.57535e+06) (4.58993 4.58993 -2.49685e+06) (2.67668 2.67668 -2.41489e+06) (0.398541 0.398541 -2.34955e+06)
1400          (-0.00779554 -0.0077955 -1.49866e+06) (-0.00779554 -0.0077955 -1.49866e+06) (-0.136922 -0.136922 -1.49566e+06) (-0.244259 -0.244259 -1.49041e+06) (-0.275311 -0.275311 -1.48282e+06) (0.314009 0.314009 -2.02076e+06) (5.28194 5.28194 -2.58612e+06) (4.37611 4.37611 -2.57543e+06) (3.61131 3.61131 -2.50356e+06) (2.1133 2.1133 -2.42838e+06) (0.319031 0.319031 -2.36826e+06)
1450          (-0.0390282 -0.0390282 -1.4922e+06) (-0.0390282 -0.0390282 -1.4922e+06) (-0.0580856 -0.0580856 -1.48943e+06) (-0.0756368 -0.0756368 -1.48458e+06) (-0.0885441 -0.0885441 -1.47758e+06) (0.723171 0.723171 -2.01483e+06) (5.96079 5.96079 -2.58125e+06) (4.8786 4.8786 -2.57548e+06) (4.03668 4.03668 -2.50967e+06) (2.38028 2.38028 -2.44075e+06) (0.379629 0.379629 -2.38551e+06)
1500          (0.023738 0.0237381 -1.48624e+06) (0.023738 0.0237381 -1.48624e+06) (0.0337095 0.0337095 -1.48368e+06) (0.0417426 0.0417426 -1.47921e+06) (0.0555234 0.0555233 -1.47277e+06) (0.975754 0.975754 -2.00941e+06) (7.45441 7.45441 -2.57681e+06) (6.3833 6.3833 -2.57554e+06) (5.35993 5.35993 -2.51525e+06) (3.27583 3.27583 -2.45209e+06) (0.66648 0.66648 -2.4014e+06)
1550          (-0.00479985 -0.00479972 -1.48075e+06) (-0.00479985 -0.00479972 -1.48075e+06) (-0.077674 -0.077674 -1.4784e+06) (-0.153468 -0.153468 -1.47429e+06) (-0.225437 -0.225437 -1.46836e+06) (-0.0340803 -0.0340803 -2.00444e+06) (2.47223 2.47223 -2.57273e+06) (2.32594 2.32594 -2.57559e+06) (1.95871 1.95871 -2.52036e+06) (1.21612 1.21612 -2.46251e+06) (0.28758 0.28758 -2.41602e+06)
1600          (0.0875831 0.0875831 -1.4757e+06) (0.0875831 0.0875831 -1.4757e+06) (0.0738138 0.0738138 -1.47353e+06) (0.0516062 0.0516062 -1.46975e+06) (0.0494024 0.0494024 -1.46431e+06) (0.690039 0.690039 -1.9999e+06) (5.17451 5.17451 -2.56902e+06) (4.55101 4.55101 -2.57564e+06) (3.77759 3.77759 -2.52505e+06) (2.25219 2.25219 -2.47205e+06) (0.382431 0.382431 -2.42945e+06)
1650          (0.0269849 0.0269849 -1.47105e+06) (0.0269849 0.0269849 -1.47105e+06) (0.039384 0.0393841 -1.46906e+06) (0.0497585 0.0497585 -1.46559e+06) (0.0635314 0.0635313 -1.46059e+06) (0.823736 0.823736 -1.99574e+06) (5.86419 5.86419 -2.56562e+06) (5.02635 5.02635 -2.57569e+06) (4.22081 4.22081 -2.52935e+06) (2.58407 2.58407 -2.48081e+06) (0.528704 0.528704 -2.44177e+06)
1700          (-0.151596 -0.151596 -1.4669e+06) (-0.151596 -0.151596 -1.4669e+06) (-0.266235 -0.266235 -1.46506e+06) (-0.373247 -0.373247 -1.46186e+06) (-0.468929 -0.468929 -1.45723e+06) (-0.302696 -0.302696 -1.99172e+06) (1.64256 1.64256 -2.56228e+06) (1.38469 1.38469 -2.57573e+06) (1.20136 1.20136 -2.5333e+06) (0.792741 0.792741 -2.48886e+06) (0.236279 0.236279 -2.45311e+06)
1750          (-0.102609 -0.102609 -1.46313e+06) (-0.102609 -0.102609 -1.46313e+06) (-0.139935 -0.139935 -1.4614e+06) (-0.169845 -0.169845 -1.45838e+06) (-0.174647 -0.174647 -1.45403e+06) (0.033213 0.033213 -1.98815e+06) (0.603071 0.603071 -2.55933e+06) (0.453018 0.453018 -2.57568e+06) (0.433286 0.433286 -2.53689e+06) (0.331337 0.331337 -2.49623e+06) (0.130225 0.130225 -2.4635e+06)
1800          (0.0116364 0.0116364 -1.45959e+06) (0.0116364 0.0116364 -1.45959e+06) (-0.040284 -0.0402839 -1.45797e+06) (-0.103875 -0.103875 -1.45516e+06) (-0.164964 -0.164964 -1.45111e+06) (-0.223956 -0.223957 -1.98499e+06) (-1.95157 -1.95157 -2.55674e+06) (-1.59725 -1.59725 -2.57563e+06) (-1.40809 -1.40809 -2.54017e+06) (-0.93278 -0.93278 -2.50299e+06) (-0.271198 -0.271198 -2.47303e+06)
1850          (-0.0766821 -0.0766822 -1.45646e+06) (-0.0766821 -0.0766822 -1.45646e+06) (-0.212742 -0.212742 -1.45495e+06) (-0.354058 -0.354058 -1.45234e+06) (-0.473917 -0.473917 -1.44858e+06) (-0.399643 -0.399643 -1.98184e+06) (0.780823 0.780823 -2.55405e+06) (0.711261 0.711261 -2.57562e+06) (0.638449 0.638449 -2.54317e+06) (0.436501 0.436501 -2.50917e+06) (0.142906 0.142906 -2.48177e+06)
1900          (-0.105923 -0.105923 -1.4534e+06) (-0.105923 -0.105923 -1.4534e+06) (-0.0719034 -0.0719034 -1.45201e+06) (-0.0306555 -0.0306555 -1.4496e+06) (-0.0352195 -0.0352195 -1.44614e+06) (-0.0762317 -0.0762317 -1.97925e+06) (0.373631 0.373631 -2.55197e+06) (0.383224 0.383224 -2.57563e+06) (0.355732 0.355732 -2.54593e+06) (0.264213 0.264213 -2.51483e+06) (0.11001 0.11001 -2.48976e+06)
1950          (-0.194585 -0.194585 -1.45079e+06) (-0.194585 -0.194585 -1.45079e+06) (-0.196329 -0.196329 -1.44949e+06) (-0.203369 -0.203369 -1.44724e+06) (-0.293027 -0.293027 -1.444e+06) (-0.331538 -0.331538 -1.97656e+06) (1.31318 1.31318 -2.54969e+06) (1.23296 1.23296 -2.57563e+06) (1.09117 1.09117 -2.54846e+06) (0.738523 0.738523 -2.52002e+06) (0.235114 0.235114 -2.4971e+06)
2000          (0.00188334 0.00188338 -1.44826e+06) (0.00188334 0.00188338 -1.44826e+06) (-0.114687 -0.114687 -1.44705e+06) (-0.21236 -0.21236 -1.44494e+06) (-0.231952 -0.231952 -1.44191e+06) (-0.0865226 -0.0865226 -1.97439e+06) (0.505037 0.505037 -2.54794e+06) (0.499223 0.499223 -2.57561e+06) (0.466133 0.466133 -2.55078e+06) (0.350508 0.350508 -2.52477e+06) (0.15138 0.15138 -2.50381e+06)
2050          (-0.0662853 -0.0662853 -1.44604e+06) (-0.0662853 -0.0662853 -1.44604e+06) (-0.266772 -0.266772 -1.44491e+06) (-0.430459 -0.430459 -1.44294e+06) (-0.492252 -0.492252 -1.44012e+06) (-0.244403 -0.244403 -1.97219e+06) (1.28714 1.28714 -2.54608e+06) (1.10815 1.10815 -2.57561e+06) (0.985348 0.985348 -2.5529e+06) (0.673279 0.673279 -2.52912e+06) (0.221399 0.221399 -2.50996e+06)
2100          (-0.078091 -0.0780909 -1.4439e+06) (-0.078091 -0.0780909 -1.4439e+06) (-0.0419186 -0.0419186 -1.44284e+06) (-0.0306412 -0.0306412 -1.44099e+06) (-0.0804338 -0.0804337 -1.43834e+06) (-0.399638 -0.399638 -1.97041e+06) (-2.80377 -2.80377 -2.54468e+06) (-2.36072 -2.36072 -2.57559e+06) (-2.01253 -2.01253 -2.55484e+06) (-1.26426 -1.26426 -2.53311e+06) (-0.289354 -0.289354 -2.51559e+06)
2150          (-0.223983 -0.223984 -1.44223e+06) (-0.223983 -0.223984 -1.44223e+06) (-0.385074 -0.385074 -1.44122e+06) (-0.518933 -0.518933 -1.43946e+06) (-0.606422 -0.606422 -1.43693e+06) (-0.435768 -0.435768 -1.96827e+06) (0.37272 0.37272 -2.54276e+06) (0.0724446 0.0724446 -2.57555e+06) (0.0630504 0.0630504 -2.55661e+06) (0.0511645 0.0511645 -2.53676e+06) (0.0259542 0.0259542 -2.52074e+06)
2200          (-0.15615 -0.15615 -1.44051e+06) (-0.15615 -0.15615 -1.44051e+06) (-0.263662 -0.263662 -1.43954e+06) (-0.358295 -0.358295 -1.43785e+06) (-0.441573 -0.441573 -1.43544e+06) (-0.470096 -0.470096 -1.96675e+06) (-1.62545 -1.62545 -2.54151e+06) (-1.59381 -1.59381 -2.57548e+06) (-1.36194 -1.36194 -2.55821e+06) (-0.877904 -0.877904 -2.54008e+06) (-0.241742 -0.241742 -2.52545e+06)
2250          (-0.0506852 -0.0506853 -1.43887e+06) (-0.0506852 -0.0506853 -1.43887e+06) (-0.133195 -0.133194 -1.43795e+06) (-0.216485 -0.216485 -1.43637e+06) (-0.294022 -0.294022 -1.43411e+06) (-0.593619 -0.593619 -1.96541e+06) (-2.48122 -2.48122 -2.54044e+06) (-2.38678 -2.38678 -2.57546e+06) (-2.12282 -2.12282 -2.55967e+06) (-1.45601 -1.45601 -2.54312e+06) (-0.489684 -0.489684 -2.52975e+06)
2300          (-0.109312 -0.109312 -1.43751e+06) (-0.109312 -0.109312 -1.43751e+06) (-0.188527 -0.188527 -1.43664e+06) (-0.260939 -0.260939 -1.43513e+06) (-0.325168 -0.325168 -1.43297e+06) (-0.317366 -0.317366 -1.96392e+06) (0.0925341 0.0925341 -2.53915e+06) (0.0110326 0.0110325 -2.57543e+06) (0.0339846 0.0339846 -2.56102e+06) (0.0417598 0.0417598 -2.5459e+06) (0.0331583 0.0331583 -2.5337e+06)
2350          (-0.11238 -0.11238 -1.43628e+06) (-0.11238 -0.11238 -1.43628e+06) (-0.27743 -0.27743 -1.43544e+06) (-0.441446 -0.441446 -1.43399e+06) (-0.597187 -0.597187 -1.43193e+06) (-0.731035 -0.731035 -1.96256e+06) (-0.274107 -0.274107 -2.53796e+06) (-0.203713 -0.203713 -2.57539e+06) (-0.181512 -0.181512 -2.56225e+06) (-0.125982 -0.125982 -2.54846e+06) (-0.0445468 -0.0445468 -2.53731e+06)
2400          (-0.0913892 -0.0913892 -1.43525e+06) (-0.0913892 -0.0913892 -1.43525e+06) (-0.272149 -0.272149 -1.43443e+06) (-0.461513 -0.461513 -1.43301e+06) (-0.652565 -0.652565 -1.43097e+06) (-0.760875 -0.760875 -1.96121e+06) (0.162275 0.162275 -2.53674e+06) (0.222773 0.222773 -2.57528e+06) (0.200283 0.200283 -2.56337e+06) (0.138015 0.138015 -2.55081e+06) (0.0480791 0.0480791 -2.54064e+06)
2450          (-0.0812534 -0.0812534 -1.43421e+06) (-0.0812534 -0.0812534 -1.43421e+06) (-0.270568 -0.270568 -1.43341e+06) (-0.466174 -0.466174 -1.43203e+06) (-0.641672 -0.641672 -1.43005e+06) (-0.682822 -0.682822 -1.96016e+06) (0.125367 0.125367 -2.53583e+06) (0.150337 0.150337 -2.5752e+06) (0.137344 0.137344 -2.56438e+06) (0.0957785 0.0957785 -2.55294e+06) (0.0338477 0.0338477 -2.54367e+06)
2500          (-0.0400639 -0.0400639 -1.43314e+06) (-0.0400639 -0.0400639 -1.43314e+06) (-0.235971 -0.235971 -1.43236e+06) (-0.420778 -0.420778 -1.43103e+06) (-0.527198 -0.527198 -1.42918e+06) (-0.425861 -0.425861 -1.95941e+06) (0.669945 0.669945 -2.53524e+06) (0.605327 0.605327 -2.57516e+06) (0.544871 0.544871 -2.56528e+06) (0.364842 0.364842 -2.55487e+06) (0.102602 0.102602 -2.54642e+06)
2550          (-0.0401845 -0.0401844 -1.43216e+06) (-0.0401845 -0.0401844 -1.43216e+06) (-0.291826 -0.291826 -1.43143e+06) (-0.510454 -0.510454 -1.43018e+06) (-0.602675 -0.602675 -1.42844e+06) (-0.453087 -0.453087 -1.95858e+06) (0.652881 0.652881 -2.53458e+06) (0.563522 0.563522 -2.57518e+06) (0.501562 0.501562 -2.56614e+06) (0.348882 0.348882 -2.55664e+06) (0.119752 0.119752 -2.54894e+06)
2600          (-0.164747 -0.164747 -1.43123e+06) (-0.164747 -0.164747 -1.43123e+06) (-0.205552 -0.205552 -1.43055e+06) (-0.244868 -0.244868 -1.42938e+06) (-0.291383 -0.291383 -1.42775e+06) (0.227685 0.227685 -1.95792e+06) (2.61942 2.61942 -2.53409e+06) (1.82384 1.82384 -2.57523e+06) (1.3169 1.3169 -2.56691e+06) (0.556135 0.556135 -2.55822e+06) (-0.174758 -0.174758 -2.5512e+06)
2650          (-0.203818 -0.203819 -1.43063e+06) (-0.203818 -0.203819 -1.43063e+06) (-0.22576 -0.22576 -1.42997e+06) (-0.258015 -0.258015 -1.42883e+06) (-0.339793 -0.339793 -1.4272e+06) (-0.182849 -0.182849 -1.95695e+06) (1.04805 1.04805 -2.53317e+06) (0.743573 0.743573 -2.57518e+06) (0.623997 0.623997 -2.56763e+06) (0.404135 0.404135 -2.5597e+06) (0.12592 0.12592 -2.55329e+06)
2700          (-0.229214 -0.229214 -1.42999e+06) (-0.229214 -0.229214 -1.42999e+06) (-0.375498 -0.375498 -1.42934e+06) (-0.510885 -0.510885 -1.42821e+06) (-0.641453 -0.641453 -1.42661e+06) (-0.693441 -0.693441 -1.95629e+06) (-1.25014 -1.25014 -2.5326e+06) (-1.17064 -1.17064 -2.57511e+06) (-0.791552 -0.791552 -2.56826e+06) (-0.385673 -0.385673 -2.56105e+06) (-0.0767486 -0.0767486 -2.5552e+06)
2750          (-0.198549 -0.198549 -1.42953e+06) (-0.198549 -0.198549 -1.42953e+06) (-0.301528 -0.301528 -1.42888e+06) (-0.403385 -0.403385 -1.42776e+06) (-0.516217 -0.516217 -1.42614e+06) (-0.390472 -0.390472 -1.95548e+06) (0.478645 0.478645 -2.53181e+06) (0.215319 0.215319 -2.575e+06) (0.197628 0.197628 -2.56884e+06) (0.140618 0.140618 -2.56228e+06) (0.0500825 0.0500824 -2.55696e+06)
2800          (-0.00269513 -0.00269487 -1.42894e+06) (-0.00269513 -0.00269487 -1.42894e+06) (-0.047735 -0.0477347 -1.42829e+06) (-0.0850735 -0.0850737 -1.42716e+06) (-0.102322 -0.102322 -1.42556e+06) (0.339374 0.339374 -1.95513e+06) (3.28442 3.28442 -2.53158e+06) (3.25622 3.25622 -2.57492e+06) (2.91736 2.91736 -2.56932e+06) (1.92145 1.92145 -2.56337e+06) (0.488096 0.488096 -2.55852e+06)
2850          (-0.188794 -0.188794 -1.42842e+06) (-0.188794 -0.188794 -1.42842e+06) (-0.26947 -0.26947 -1.42778e+06) (-0.331689 -0.331689 -1.42668e+06) (-0.359773 -0.359773 -1.42516e+06) (0.0571274 0.0571273 -1.95462e+06) (1.45586 1.45586 -2.53115e+06) (0.872155 0.872155 -2.57494e+06) (0.721511 0.721511 -2.56979e+06) (0.403779 0.403779 -2.56438e+06) (0.0184949 0.0184949 -2.55998e+06)
2900          (-0.194692 -0.194692 -1.42801e+06) (-0.194692 -0.194692 -1.42801e+06) (-0.282009 -0.282009 -1.42739e+06) (-0.354329 -0.354329 -1.42632e+06) (-0.416814 -0.416814 -1.42483e+06) (-0.184613 -0.184613 -1.95406e+06) (1.10843 1.10843 -2.53063e+06) (0.757867 0.757867 -2.57493e+06) (0.642167 0.642167 -2.57023e+06) (0.420853 0.420853 -2.56528e+06) (0.132536 0.132536 -2.56126e+06)
2950          (-0.198371 -0.198371 -1.42754e+06) (-0.198371 -0.198371 -1.42754e+06) (-0.325996 -0.325996 -1.42693e+06) (-0.439137 -0.439137 -1.42589e+06) (-0.52364 -0.52364 -1.42444e+06) (-0.496409 -0.496409 -1.95375e+06) (-0.743842 -0.743842 -2.53042e+06) (-0.830126 -0.830126 -2.57492e+06) (-0.717141 -0.717141 -2.57061e+06) (-0.468129 -0.468129 -2.5661e+06) (-0.13229 -0.13229 -2.56244e+06)
3000          (-0.190565 -0.190565 -1.42707e+06) (-0.190565 -0.190565 -1.42707e+06) (-0.283541 -0.283541 -1.42647e+06) (-0.357076 -0.357076 -1.42548e+06) (-0.398856 -0.398856 -1.4241e+06) (-0.235858 -0.235858 -1.95346e+06) (0.773111 0.773111 -2.53022e+06) (0.510573 0.510573 -2.57496e+06) (0.448001 0.448001 -2.57099e+06) (0.318067 0.318067 -2.56686e+06) (0.121516 0.121516 -2.56353e+06)
3050          (-0.18889 -0.18889 -1.42676e+06) (-0.18889 -0.18889 -1.42676e+06) (-0.291354 -0.291354 -1.42618e+06) (-0.378417 -0.378417 -1.42521e+06) (-0.4566 -0.4566 -1.42384e+06) (-0.338073 -0.338073 -1.95299e+06) (0.374892 0.374892 -2.52977e+06) (0.134265 0.134265 -2.57495e+06) (0.118718 0.118718 -2.57135e+06) (0.0823985 0.0823985 -2.56759e+06) (0.0286792 0.0286792 -2.56455e+06)
3100          (-0.187064 -0.187064 -1.42647e+06) (-0.187064 -0.187064 -1.42647e+06) (-0.298894 -0.298894 -1.4259e+06) (-0.400307 -0.400307 -1.42494e+06) (-0.495634 -0.495634 -1.42359e+06) (-0.443587 -0.443587 -1.95266e+06) (-0.153375 -0.153375 -2.52947e+06) (-0.32559 -0.32559 -2.57492e+06) (-0.300168 -0.300168 -2.57165e+06) (-0.201338 -0.201338 -2.56821e+06) (-0.0522562 -0.0522562 -2.56543e+06)
3150          (-0.237645 -0.237645 -1.4261e+06) (-0.237645 -0.237645 -1.4261e+06) (-0.375379 -0.375379 -1.42555e+06) (-0.496993 -0.496993 -1.4246e+06) (-0.571277 -0.571277 -1.42328e+06) (-0.283229 -0.283229 -1.9525e+06) (-0.690524 -0.690524 -2.52941e+06) (-0.894744 -0.894744 -2.57492e+06) (-0.968473 -0.968473 -2.57192e+06) (-0.826836 -0.826836 -2.56879e+06) (-0.429611 -0.429611 -2.56625e+06)
3200          (-0.193171 -0.193171 -1.42577e+06) (-0.193171 -0.193171 -1.42577e+06) (-0.286436 -0.286436 -1.42522e+06) (-0.346727 -0.346727 -1.42432e+06) (-0.395235 -0.395235 -1.42308e+06) (-0.234401 -0.234401 -1.95226e+06) (0.714989 0.714989 -2.52923e+06) (0.430007 0.430007 -2.575e+06) (0.357803 0.357803 -2.57219e+06) (0.230037 0.230038 -2.56931e+06) (0.0617301 0.0617301 -2.567e+06)
3250          (-0.184171 -0.184171 -1.42555e+06) (-0.184171 -0.184171 -1.42555e+06) (-0.282804 -0.282804 -1.42502e+06) (-0.359496 -0.359496 -1.42413e+06) (-0.435072 -0.435072 -1.4229e+06) (-0.34263 -0.34263 -1.95198e+06) (0.268876 0.268876 -2.52897e+06) (0.0547216 0.0547216 -2.57498e+06) (0.0522588 0.0522588 -2.57244e+06) (0.0429247 0.0429247 -2.56979e+06) (0.021543 0.0215429 -2.56767e+06)
3300          (-0.179117 -0.179117 -1.42535e+06) (-0.179117 -0.179117 -1.42535e+06) (-0.259257 -0.259257 -1.42483e+06) (-0.321929 -0.321929 -1.42395e+06) (-0.38587 -0.38587 -1.42272e+06) (-0.205393 -0.205393 -1.95173e+06) (0.909162 0.909161 -2.52874e+06) (0.639495 0.639495 -2.57495e+06) (0.576107 0.576107 -2.57265e+06) (0.394634 0.394634 -2.57024e+06) (0.133884 0.133884 -2.5683e+06)
3350          (-0.117922 -0.117922 -1.42506e+06) (-0.117922 -0.117922 -1.42506e+06) (-0.244418 -0.244418 -1.42454e+06) (-0.364147 -0.364147 -1.42368e+06) (-0.463596 -0.463596 -1.42248e+06) (-0.512808 -0.512808 -1.9517e+06) (-0.129407 -0.129407 -2.5288e+06) (-0.0613533 -0.0613533 -2.57498e+06) (0.0147916 0.0147915 -2.57283e+06) (0.0773797 0.0773797 -2.57062e+06) (0.0908087 0.0908087 -2.56884e+06)
3400          (-0.0682918 -0.0682918 -1.42477e+06) (-0.0682918 -0.0682918 -1.42477e+06) (-0.236655 -0.236655 -1.42427e+06) (-0.401899 -0.401899 -1.42344e+06) (-0.55337 -0.55337 -1.42233e+06) (-0.776619 -0.776619 -1.95158e+06) (-0.519494 -0.519494 -2.52875e+06) (-0.311003 -0.311003 -2.57507e+06) (-0.263817 -0.263817 -2.57304e+06) (-0.176899 -0.176899 -2.57099e+06) (-0.0517466 -0.0517466 -2.56937e+06)
3450          (-0.0666465 -0.0666463 -1.42458e+06) (-0.0666465 -0.0666463 -1.42458e+06) (-0.2298 -0.2298 -1.42409e+06) (-0.391068 -0.391068 -1.42329e+06) (-0.546929 -0.546929 -1.4222e+06) (-0.768473 -0.768473 -1.9514e+06) (-0.452629 -0.452629 -2.5286e+06) (-0.26748 -0.26748 -2.5751e+06) (-0.226328 -0.226328 -2.57322e+06) (-0.148908 -0.148908 -2.57133e+06) (-0.0447837 -0.0447837 -2.56984e+06)
3500          (-0.0841313 -0.0841312 -1.42441e+06) (-0.0841313 -0.0841312 -1.42441e+06) (-0.225449 -0.225449 -1.42394e+06) (-0.363644 -0.363644 -1.42315e+06) (-0.497279 -0.497279 -1.42208e+06) (-0.631063 -0.631063 -1.95122e+06) (0.453454 0.453454 -2.52844e+06) (0.568373 0.568373 -2.57511e+06) (0.517916 0.517916 -2.5734e+06) (0.369156 0.369156 -2.57166e+06) (0.139163 0.139163 -2.57028e+06)
3550          (-0.080763 -0.0807629 -1.4243e+06) (-0.080763 -0.0807629 -1.4243e+06) (-0.224618 -0.224618 -1.42383e+06) (-0.368569 -0.368569 -1.42305e+06) (-0.515474 -0.515474 -1.42198e+06) (-0.624404 -0.624404 -1.95105e+06) (0.338368 0.338368 -2.52827e+06) (0.420621 0.420621 -2.57509e+06) (0.37436 0.37436 -2.57354e+06) (0.249613 0.249613 -2.57193e+06) (0.0766752 0.0766751 -2.57066e+06)
3600          (-0.0825043 -0.0825042 -1.42418e+06) (-0.0825043 -0.0825042 -1.42418e+06) (-0.229018 -0.229018 -1.42372e+06) (-0.378813 -0.378813 -1.42295e+06) (-0.534759 -0.534759 -1.42188e+06) (-0.637737 -0.637737 -1.95089e+06) (0.208335 0.208335 -2.52812e+06) (0.272776 0.272776 -2.57507e+06) (0.239924 0.239924 -2.57366e+06) (0.155041 0.155041 -2.5722e+06) (0.041928 0.041928 -2.57103e+06)
3650          (-0.0891094 -0.0891094 -1.42406e+06) (-0.0891094 -0.0891094 -1.42406e+06) (-0.238238 -0.238238 -1.42361e+06) (-0.391971 -0.391971 -1.42284e+06) (-0.550941 -0.550941 -1.42177e+06) (-0.655704 -0.655704 -1.95075e+06) (-0.00206637 -0.00206637 -2.52799e+06) (0.0485283 0.0485284 -2.57505e+06) (0.0420481 0.0420481 -2.57379e+06) (0.0281132 0.0281133 -2.57246e+06) (0.0103412 0.0103411 -2.5714e+06)
3700          (-0.0905058 -0.0905058 -1.42398e+06) (-0.0905058 -0.0905058 -1.42398e+06) (-0.236631 -0.236631 -1.42352e+06) (-0.388607 -0.388607 -1.42276e+06) (-0.544733 -0.544733 -1.42169e+06) (-0.658389 -0.658389 -1.95066e+06) (-0.13615 -0.13615 -2.52791e+06) (-0.0587584 -0.0587583 -2.57504e+06) (-0.0446801 -0.0446801 -2.57387e+06) (-0.0157897 -0.0157897 -2.57265e+06) (0.0149159 0.0149158 -2.57167e+06)
3750          (-0.0855337 -0.0855336 -1.42387e+06) (-0.0855337 -0.0855336 -1.42387e+06) (-0.235417 -0.235417 -1.42342e+06) (-0.394031 -0.394031 -1.42266e+06) (-0.555878 -0.555878 -1.4216e+06) (-0.646549 -0.646549 -1.95054e+06) (-0.162754 -0.162754 -2.52781e+06) (-0.119393 -0.119393 -2.57502e+06) (-0.127445 -0.127445 -2.57397e+06) (-0.102833 -0.102833 -2.57287e+06) (-0.0406118 -0.0406118 -2.57199e+06)
3800          (-0.0820205 -0.0820205 -1.42378e+06) (-0.0820205 -0.0820205 -1.42378e+06) (-0.241006 -0.241006 -1.42334e+06) (-0.406613 -0.406613 -1.42258e+06) (-0.572084 -0.572084 -1.42152e+06) (-0.648353 -0.648353 -1.95045e+06) (0.31194 0.31194 -2.52773e+06) (0.372127 0.372127 -2.57502e+06) (0.380234 0.380234 -2.57406e+06) (0.307516 0.307516 -2.57306e+06) (0.139286 0.139286 -2.57225e+06)
3850          (-0.079892 -0.0798921 -1.42371e+06) (-0.079892 -0.0798921 -1.42371e+06) (-0.248267 -0.248266 -1.42327e+06) (-0.422083 -0.422083 -1.42251e+06) (-0.592166 -0.592166 -1.42146e+06) (-0.661377 -0.661377 -1.95038e+06) (0.451753 0.451753 -2.52766e+06) (0.509513 0.509513 -2.57501e+06) (0.530015 0.530015 -2.57412e+06) (0.440128 0.440128 -2.5732e+06) (0.206642 0.206642 -2.57246e+06)