# Probe 0 (0.0015 0.0015 0)
# Probe 1 (0.0015 0.0015 0.01)
# Probe 2 (0.0015 0.0015 0.02)
# Probe 3 (0.0015 0.0015 0.03)
# Probe 4 (0.0015 0.0015 0.04)
# Probe 5 (0.0015 0.0015 0.05)
# Probe 6 (0.0015 0.0015 0.06)
# Probe 7 (0.0015 0.0015 0.07)
# Probe 8 (0.0015 0.0015 0.08)
# Probe 9 (0.0015 0.0015 0.09)
# Probe 10 (0.0015 0.0015 0.1)
# Time        0             1             2             3             4             5             6             7             8             9             10           
50            (0.0429884 0.0429884 11309.9) (0.0429884 0.0429884 11309.9) (0.0450555 0.0450555 8392.26) (0.0255091 0.0255091 4874.36) (0.0106177 0.0106177 2250.98) (0.00581879 0.00581879 698.575) (0.00129456 0.00129457 319.629) (-0.00150873 -0.00150874 14.3562) (-0.00514175 -0.00514175 81.968) (-0.0149658 -0.0149658 422.212) (-0.0151606 -0.0151606 1435.47)
100           (0.0110444 0.0110444 8362.6) (0.0110444 0.0110444 8362.6) (0.0167048 0.0167048 7334.12) (0.0172165 0.0172165 5677.91) (0.0132803 0.0132803 3769.18) (0.0117585 0.0117585 1643.08) (0.00630616 0.00630616 1300.97) (-0.00311781 -0.00311782 108.883) (-0.00664738 -0.00664738 195.6) (-0.0105433 -0.0105433 552.111) (-0.00658475 -0.00658475 1200.69)
150           (-6.45609e-05 -6.45609e-05 6868.66) (-6.45609e-05 -6.45609e-05 6868.66) (-0.00034139 -0.00034139 6320.54) (-0.000548963 -0.000548963 5391.8) (-0.000384072 -0.000384072 4185.42) (-0.000205064 -0.000205064 2151.13) (0.000942794 0.000942794 2185.16) (-0.000246105 -0.000246105 257.83) (-0.000619386 -0.000619386 299.583) (-0.000817084 -0.000817084 597.135) (-0.000443152 -0.000443151 1047.18)
200           (0.0116062 0.0116062 5945.87) (0.0116062 0.0116062 5945.87) (0.0188167 0.0188167 5600.81) (0.0231547 0.0231547 5010.11) (0.0237097 0.0237097 4215.39) (0.0419852 0.0419852 2362.41) (0.0259847 0.0259847 2756.28) (-0.00334917 -0.00334917 416.847) (-0.011859 -0.011859 397.4) (-0.012467 -0.012467 617.787) (-0.0044256 -0.0044256 941.449)
250           (0.000979741 0.000979741 5321.94) (0.000979741 0.000979741 5321.94) (0.00151259 0.00151259 5087.22) (0.00181982 0.00181982 4684.35) (0.00175511 0.00175511 4134.05) (0.00274541 0.00274541 2434.93) (0.00470399 0.00470399 3084.68) (0.000139236 0.000139236 558.404) (-0.00167192 -0.00167192 488.87) (-0.00182404 -0.00182404 634.392) (-0.000620357 -0.000620357 867.562)
300           (-0.00446265 -0.00446265 4878.34) (-0.00446265 -0.00446265 4878.34) (-0.00737991 -0.00737991 4710.68) (-0.00949274 -0.00949274 4422.44) (-0.0106687 -0.0106687 4024.91) (-0.0269361 -0.0269361 2445.6) (-0.0198615 -0.0198615 3267.13) (-0.00301972 -0.00301972 673.362) (0.00481756 0.00481756 571.488) (0.00590464 0.00590464 652.945) (0.00180202 0.00180202 816.665)
350           (-0.00319584 -0.00319584 4551.16) (-0.00319584 -0.00319584 4551.16) (-0.00532165 -0.00532165 4426.95) (-0.00692985 -0.00692985 4213.08) (-0.00798545 -0.00798545 3916.07) (-0.0219098 -0.0219098 2429.65) (-0.0173503 -0.0173503 3365.76) (-0.00437129 -0.00437129 762.479) (0.00268034 0.00268034 643.358) (0.00431845 0.00431845 674.132) (0.00142306 0.00142306 783.104)
400           (-0.00235827 -0.00235827 4302.73) (-0.00235827 -0.00235827 4302.73) (-0.00395069 -0.00395069 4208.01) (-0.00519493 -0.00519493 4044.69) (-0.00610216 -0.00610216 3816.63) (-0.0178171 -0.0178171 2403.02) (-0.0146578 -0.0146578 3416.02) (-0.00496766 -0.00496766 829.909) (0.000928417 0.000928417 704.175) (0.00288079 0.00288079 697.028) (0.00109237 0.00109237 762.775)
450           (-0.00178738 -0.00178738 4109.53) (-0.00178738 -0.00178738 4109.53) (-0.00301028 -0.00301028 4035.57) (-0.00399019 -0.00399019 3907.85) (-0.00476009 -0.00476009 3728.71) (-0.0146016 -0.0146016 2372.96) (-0.0123733 -0.0123733 3437.81) (-0.00512424 -0.00512424 880.299) (-0.000317022 -0.000317022 754.68) (0.00175462 0.00175462 720.479) (0.000827951 0.000827951 752.53)
500           (-0.00138815 -0.00138815 3956.21) (-0.00138815 -0.00138815 3956.21) (-0.00234888 -0.00234888 3897.27) (-0.00313476 -0.00313476 3795.36) (-0.00378839 -0.00378839 3651.85) (-0.0121045 -0.0121045 2342.74) (-0.0105054 -0.0105054 3442.63) (-0.00503698 -0.00503698 917.713) (-0.00115885 -0.00115885 796.145) (0.000902533 0.000902533 743.565) (0.000618093 0.000618093 749.892)
550           (-0.00110237 -0.00110237 3832.34) (-0.00110237 -0.00110237 3832.34) (-0.001873 -0.001873 3784.54) (-0.00251446 -0.00251446 3701.76) (-0.00307286 -0.00307286 3584.76) (-0.0101639 -0.0101639 2313.79) (-0.00899615 -0.00899615 3437.25) (-0.0048249 -0.0048249 945.397) (-0.00170466 -0.00170466 829.989) (0.00027038 0.00027038 765.68) (0.000451172 0.000451172 752.888)
600           (-0.000893237 -0.000893237 3730.65) (-0.000893237 -0.000893237 3730.65) (-0.00152311 -0.00152311 3691.25) (-0.00205538 -0.00205538 3622.92) (-0.00253649 -0.00253649 3526.02) (-0.00864381 -0.00864381 2286.69) (-0.00777702 -0.00777702 3425.82) (-0.00455581 -0.00455581 965.836) (-0.00203964 -0.00203964 857.567) (-0.000189371 -0.000189371 786.482) (0.000318629 0.000318629 759.958)
650           (-0.000736939 -0.000736939 3645.94) (-0.000736939 -0.000736939 3645.94) (-0.0012605 -0.0012605 3612.98) (-0.00170884 -0.00170884 3555.76) (-0.00212708 -0.00212708 3474.35) (-0.00743898 -0.00743898 2261.58) (-0.0067862 -0.0067862 3410.9) (-0.00426649 -0.00426649 980.899) (-0.00222629 -0.00222629 880.079) (-0.000515449 -0.000515449 805.823) (0.000214144 0.000214144 769.87)
700           (-0.000617801 -0.000617801 3574.4) (-0.000617801 -0.000617801 3574.4) (-0.00105957 -0.00105957 3546.48) (-0.0014423 -0.0014423 3497.91) (-0.00180904 -0.00180904 3428.62) (-0.00647108 -0.00647108 2238.46) (-0.00597309 -0.00597309 3394.12) (-0.00397615 -0.00397615 991.978) (-0.00230919 -0.00230919 898.535) (-0.000738726 -0.000738726 823.677) (0.000132771 0.000132771 781.665)
750           (-0.000525307 -0.000525307 3513.26) (-0.000525307 -0.000525307 3513.26) (-0.000903036 -0.000903036 3489.3) (-0.00123365 -0.00123365 3447.59) (-0.00155777 -0.00155777 3387.92) (-0.00568255 -0.00568255 2217.2) (-0.00529813 -0.00529813 3376.53) (-0.00369444 -0.00369444 1000.11) (-0.00231997 -0.00231997 913.763) (-0.000883621 -0.000883621 840.089) (7.04201e-05 7.04201e-05 794.605)
800           (-0.000452261 -0.000452261 3460.4) (-0.000452261 -0.000452261 3460.4) (-0.000779028 -0.000779028 3439.63) (-0.00106761 -0.00106761 3403.41) (-0.00135607 -0.00135607 3351.49) (-0.00503116 -0.00503116 2197.67) (-0.00473104 -0.00473104 3358.79) (-0.00342593 -0.00342593 1006.06) (-0.00228112 -0.00228112 926.429) (-0.000969373 -0.000969373 855.143) (2.35978e-05 2.35978e-05 808.127)
850           (-0.000393644 -0.000393644 3414.26) (-0.000393644 -0.000393644 3414.26) (-0.00067923 -0.00067923 3396.07) (-0.000933414 -0.000933414 3364.33) (-0.00119168 -0.00119168 3318.73) (-0.00448578 -0.00448578 2179.74) (-0.00424879 -0.00424879 3341.35) (-0.00317251 -0.00317251 1010.39) (-0.0022088 -0.0022088 937.06) (-0.00101109 -0.00101109 868.94) (-1.07077e-05 -1.07077e-05 821.814)
900           (-0.000345887 -0.000345887 3373.62) (-0.000345887 -0.000345887 3373.62) (-0.000597705 -0.000597706 3357.56) (-0.000823336 -0.000823336 3329.51) (-0.00105577 -0.00105577 3289.14) (-0.0040233 -0.0040233 2163.27) (-0.00383395 -0.00383395 3324.49) (-0.00293472 -0.00293472 1013.55) (-0.00211468 -0.00211468 946.072) (-0.00102055 -0.00102055 881.584) (-3.50777e-05 -3.50777e-05 835.358)
950           (-0.000306414 -0.000306414 3337.55) (-0.000306414 -0.000306414 3337.55) (-0.000530156 -0.000530156 3323.27) (-0.000731767 -0.000731767 3298.3) (-0.000941848 -0.000941848 3262.32) (-0.00362639 -0.00362639 2148.12) (-0.00347322 -0.00347322 3308.37) (-0.00271238 -0.00271238 1015.82) (-0.00200721 -0.00200721 953.786) (-0.00100692 -0.00100692 893.172) (-5.16923e-05 -5.16923e-05 848.543)
1000          (-0.000273339 -0.000273339 3305.33) (-0.000273339 -0.000273339 3305.33) (-0.000473423 -0.000473423 3292.54) (-0.000654574 -0.000654574 3270.19) (-0.000845129 -0.000845129 3237.93) (-0.00328198 -0.00328198 2134.2) (-0.00315648 -0.00315648 3293.09) (-0.00250497 -0.00250497 1017.46) (-0.00189251 -0.00189251 960.456) (-0.000977211 -0.000977211 903.799) (-6.23586e-05 -6.23586e-05 861.219)
1050          (-0.000979927 -0.000979927 3276.38) (-0.000979927 -0.000979927 3276.38) (-0.0016685 -0.0016685 3264.88) (-0.00228932 -0.00228932 3244.76) (-0.00288292 -0.00288292 3215.7) (-0.00989736 -0.00989736 2121.39) (-0.00815899 -0.00815899 3278.7) (-0.00638264 -0.00638264 1018.64) (-0.00485924 -0.00485924 966.277) (-0.00252279 -0.00252279 913.547) (-0.000172041 -0.000172041 873.29)
1100          (-0.000883842 -0.000883843 3250.26) (-0.000883842 -0.000883843 3250.26) (-0.00150583 -0.00150583 3239.87) (-0.00206854 -0.00206854 3221.68) (-0.00261004 -0.00261004 3195.39) (-0.00900638 -0.00900638 2109.61) (-0.00766049 -0.00766049 3265.23) (-0.00611387 -0.00611387 1019.47) (-0.0047555 -0.0047555 971.399) (-0.00253624 -0.00253624 922.494) (-0.000198977 -0.000198977 884.698)
1150          (-0.000800322 -0.000800322 3226.6) (-0.000800322 -0.000800322 3226.6) (-0.00136418 -0.00136418 3217.17) (-0.00187566 -0.00187566 3200.67) (-0.00237026 -0.00237026 3176.82) (-0.00821065 -0.00821065 2098.78) (-0.00700626 -0.00700626 3252.67) (-0.00564281 -0.00564281 1020.06) (-0.00444141 -0.00444141 975.941) (-0.00241091 -0.00241091 930.707) (-0.000206214 -0.000206214 895.415)
1200          (-0.000726952 -0.000726952 3205.09) (-0.000726952 -0.000726952 3205.09) (-0.00123959 -0.00123959 3196.52) (-0.00170559 -0.00170559 3181.52) (-0.00215794 -0.00215794 3159.82) (-0.00749814 -0.00749814 2088.82) (-0.00641205 -0.00641205 3240.98) (-0.00519795 -0.00519795 1020.47) (-0.00412379 -0.00412379 979.996) (-0.00226338 -0.00226338 938.249) (-0.000204866 -0.000204866 905.436)
1250          (-0.000661949 -0.000661949 3185.5) (-0.000661949 -0.000661949 3185.5) (-0.00112908 -0.00112908 3177.69) (-0.00155443 -0.00155443 3164.02) (-0.00196856 -0.00196856 3144.24) (-0.00685658 -0.00685658 2079.66) (-0.0058733 -0.0058733 3230.15) (-0.00478524 -0.00478524 1020.76) (-0.00381918 -0.00381918 983.636) (-0.00211301 -0.00211301 945.174) (-0.000199021 -0.000199021 914.77)
1300          (0.000119657 0.000119657 3168.52) (0.000119657 0.000119657 3168.52) (0.000326252 0.000326252 3161.28) (0.000550485 0.000550485 3148.58) (0.000755595 0.000755595 3130.12) (-0.000191928 -0.000191928 2070.97) (-0.00206298 -0.00206298 3218.93) (-0.00173374 -0.00173374 1020.92) (-0.00143889 -0.00143889 986.912) (-0.000850954 -0.000850954 951.53) (-0.000125406 -0.000125406 923.433)
1350          (0.000127412 0.000127412 3152.82) (0.000127412 0.000127412 3152.82) (6.13714e-05 6.13714e-05 3146.04) (9.96122e-06 9.96122e-06 3134.17) (7.00193e-05 7.00193e-05 3116.98) (-0.00121607 -0.00121607 2063.08) (-0.0026443 -0.0026443 3209.32) (-0.00221452 -0.00221452 1020.98) (-0.00181964 -0.00181964 989.855) (-0.00106115 -0.00106115 957.363) (-0.000157998 -0.000157998 931.459)
1400          (1.63237e-05 1.63236e-05 3138.18) (1.63237e-05 1.63236e-05 3138.18) (0.000286713 0.000286713 3131.89) (0.000511475 0.000511475 3120.89) (0.000576498 0.000576498 3105) (-0.000657531 -0.000657531 2055.96) (-0.00209398 -0.00209398 3200.72) (-0.00173487 -0.00173487 1021.01) (-0.00143167 -0.00143167 992.515) (-0.000837799 -0.000837799 962.711) (-0.000126477 -0.000126477 938.876)
1450          (8.17246e-05 8.17246e-05 3124.65) (8.17246e-05 8.17246e-05 3124.65) (0.000121631 0.00012163 3118.84) (0.000158382 0.000158382 3108.68) (0.00018541 0.00018541 3094.03) (-0.00151431 -0.00151431 2049.46) (-0.0023631 -0.0023631 3192.89) (-0.00193408 -0.00193408 1021.03) (-0.00160031 -0.00160031 994.936) (-0.000943641 -0.000943641 967.613) (-0.000150501 -0.000150501 945.714)
1500          (-4.9707e-05 -4.97073e-05 3112.16) (-4.9707e-05 -4.97073e-05 3112.16) (-7.05871e-05 -7.05873e-05 3106.81) (-8.74086e-05 -8.74086e-05 3097.45) (-0.000116265 -0.000116265 3083.97) (-0.00204322 -0.00204322 2043.51) (-0.00295524 -0.00295524 3185.74) (-0.0025306 -0.0025306 1021.05) (-0.0021249 -0.0021249 997.148) (-0.00129868 -0.00129868 972.11) (-0.00026422 -0.00026422 952.013)
1550          (1.00508e-05 1.00506e-05 3100.68) (1.00508e-05 1.00506e-05 3100.68) (0.000162648 0.000162648 3095.74) (0.00032136 0.00032136 3087.14) (0.000472063 0.000472063 3074.73) (7.13638e-05 7.13638e-05 2038.04) (-0.000980093 -0.000980093 3179.16) (-0.000922097 -0.000922097 1021.07) (-0.000776513 -0.000776513 999.176) (-0.000482121 -0.000482121 976.239) (-0.000114009 -0.000114009 957.81)
1600          (-0.000183398 -0.000183398 3090.1) (-0.000183398 -0.000183398 3090.1) (-0.000154565 -0.000154565 3085.56) (-0.000108063 -0.000108063 3077.65) (-0.000103448 -0.000103448 3066.25) (-0.00144493 -0.00144493 2033.04) (-0.00205139 -0.00205139 3173.19) (-0.00180421 -0.00180421 1021.09) (-0.00149759 -0.00149759 1001.03) (-0.000892862 -0.000892862 980.024) (-0.000151611 -0.000151611 963.133)
1650          (-5.65061e-05 -5.65061e-05 3080.37) (-5.65061e-05 -5.65061e-05 3080.37) (-8.24696e-05 -8.24696e-05 3076.2) (-0.000104194 -0.000104194 3068.93) (-0.000133034 -0.000133034 3058.46) (-0.00172489 -0.00172489 2028.46) (-0.00232481 -0.00232481 3167.72) (-0.00199265 -0.00199265 1021.11) (-0.0016733 -0.0016733 1002.74) (-0.00102443 -0.00102443 983.496) (-0.0002096 -0.0002096 968.02)
1700          (0.000317441 0.000317441 3071.67) (0.000317441 0.000317441 3071.67) (0.000557492 0.000557492 3067.83) (0.000781575 0.000781575 3061.11) (0.000981931 0.000981931 3051.42) (0.000633842 0.000633842 2024.18) (-0.000651179 -0.000651179 3162.24) (-0.00054895 -0.00054895 1021.13) (-0.000476267 -0.000476267 1004.3) (-0.000314275 -0.000314275 986.686) (-9.36708e-05 -9.36708e-05 972.513)
1750          (0.000214861 0.000214861 3063.77) (0.000214861 0.000214861 3063.77) (0.000293023 0.000293023 3060.15) (0.000355654 0.000355654 3053.83) (0.000365708 0.000365708 3044.72) (-6.95476e-05 -6.95476e-05 2020.19) (-0.000239082 -0.000239082 3157.6) (-0.000179595 -0.000179595 1021.11) (-0.000171772 -0.000171772 1005.73) (-0.000131356 -0.000131356 989.61) (-5.16267e-05 -5.16267e-05 976.633)
1800          (-2.43665e-05 -2.43665e-05 3056.35) (-2.43665e-05 -2.43665e-05 3056.35) (8.43541e-05 8.4354e-05 3052.97) (0.000217512 0.000217512 3047.08) (0.000345432 0.000345432 3038.6) (0.000468962 0.000468962 2016.61) (0.000773682 0.000773682 3153.54) (0.000633216 0.000633216 1021.09) (0.000558226 0.000558226 1007.03) (0.000369793 0.000369793 992.288) (0.000107514 0.000107514 980.413)
1850          (0.000160571 0.000160571 3049.8) (0.000160571 0.000160571 3049.8) (0.00044548 0.00044548 3046.65) (0.000741393 0.000741393 3041.18) (0.000992376 0.000992376 3033.32) (0.000836848 0.000836848 2013.36) (-0.00030955 -0.00030955 3149.11) (-0.000281973 -0.000281973 1021.08) (-0.000253108 -0.000253108 1008.22) (-0.000173047 -0.000173047 994.737) (-5.66539e-05 -5.66539e-05 983.874)
1900          (0.000221801 0.000221801 3043.41) (0.000221801 0.000221801 3043.41) (0.000150565 0.000150565 3040.5) (6.41922e-05 6.41923e-05 3035.45) (7.37493e-05 7.37493e-05 3028.2) (0.000159628 0.000159628 2010.41) (-0.000148123 -0.000148123 3145.82) (-0.000151926 -0.000151926 1021.09) (-0.000141027 -0.000141027 1009.31) (-0.000104745 -0.000104745 996.981) (-4.36126e-05 -4.36126e-05 987.045)
1950          (0.000407459 0.000407459 3037.94) (0.000407459 0.000407459 3037.94) (0.00041111 0.00041111 3035.22) (0.000425852 0.000425852 3030.5) (0.000613594 0.000613594 3023.72) (0.000694236 0.000694236 2007.63) (-0.0005206 -0.0005206 3142.06) (-0.000488795 -0.000488795 1021.09) (-0.000432587 -0.000432587 1010.32) (-0.000292781 -0.000292781 999.039) (-9.32088e-05 -9.32088e-05 989.952)
2000          (-3.94363e-06 -3.94372e-06 3032.65) (-3.94363e-06 -3.94372e-06 3032.65) (0.000240153 0.000240153 3030.1) (0.000444678 0.000444678 3025.68) (0.000485704 0.000485704 3019.34) (0.000181177 0.000181177 2005.1) (-0.000200217 -0.000200217 3139.36) (-0.000197912 -0.000197912 1021.08) (-0.000184794 -0.000184794 1011.23) (-0.000138956 -0.000138956 1000.92) (-6.00131e-05 -6.00131e-05 992.612)
2050          (0.000138801 0.000138801 3027.99) (0.000138801 0.000138801 3027.99) (0.000558616 0.000558616 3025.62) (0.000901376 0.000901376 3021.49) (0.00103077 0.00103077 3015.6) (0.000511776 0.000511776 2002.82) (-0.000510275 -0.000510275 3136.29) (-0.000439316 -0.000439316 1021.08) (-0.000390633 -0.000390633 1012.07) (-0.000266916 -0.000266916 1002.65) (-8.77719e-05 -8.77718e-05 995.05)
2100          (0.000163521 0.000163521 3023.51) (0.000163521 0.000163521 3023.51) (8.77771e-05 8.7777e-05 3021.28) (6.41623e-05 6.41623e-05 3017.41) (0.000168427 0.000168427 3011.86) (0.000836836 0.000836836 2000.68) (0.00111153 0.00111153 3134.15) (0.000935888 0.000935888 1021.07) (0.000797848 0.000797848 1012.84) (0.000501204 0.000501204 1004.23) (0.000114712 0.000114712 997.282)
2150          (0.000469018 0.000469019 3020.01) (0.000469018 0.000469019 3020.01) (0.00080634 0.00080634 3017.89) (0.00108664 0.00108664 3014.2) (0.00126984 0.00126984 3008.9) (0.000912492 0.000912492 1998.69) (-0.000147762 -0.000147762 3130.9) (-2.872e-05 -2.872e-05 1021.05) (-2.49958e-05 -2.49958e-05 1013.55) (-2.02837e-05 -2.02837e-05 1005.67) (-1.02893e-05 -1.02893e-05 999.327)
2200          (0.000326976 0.000326976 3016.41) (0.000326976 0.000326976 3016.41) (0.000552104 0.000552104 3014.37) (0.000750264 0.000750264 3010.84) (0.000924649 0.000924649 3005.8) (0.000984375 0.000984375 1996.9) (0.000644396 0.000644396 3129.02) (0.000631852 0.000631852 1021.03) (0.000539929 0.000539929 1014.18) (0.000348037 0.000348037 1006.99) (9.58365e-05 9.58365e-05 1001.19)
2250          (0.000106134 0.000106134 3012.98) (0.000106134 0.000106134 3012.98) (0.000278908 0.000278907 3011.05) (0.000453317 0.000453317 3007.73) (0.000615678 0.000615678 3003.01) (0.00124303 0.00124303 1995.31) (0.000983657 0.000983656 3127.37) (0.000946219 0.000946219 1021.02) (0.000841573 0.000841573 1014.76) (0.000577221 0.000577221 1008.2) (0.000194131 0.000194131 1002.9)
2300          (0.000228897 0.000228897 3010.14) (0.000228897 0.000228897 3010.14) (0.000394774 0.000394774 3008.3) (0.000546402 0.000546402 3005.14) (0.000680898 0.000680898 3000.63) (0.00066456 0.00066456 1993.79) (-3.66843e-05 -3.66843e-05 3125.24) (-4.37375e-06 -4.37376e-06 1021.01) (-1.34729e-05 -1.34729e-05 1015.29) (-1.65553e-05 -1.65553e-05 1009.3) (-1.31453e-05 -1.31453e-05 1004.46)
2350          (0.000235323 0.000235323 3007.56) (0.000235323 0.000235323 3007.56) (0.000580934 0.000580934 3005.8) (0.000924382 0.000924382 3002.77) (0.0012505 0.0012505 2998.44) (0.00153078 0.00153078 1992.41) (0.000108667 0.000108667 3123.31) (8.07601e-05 8.07601e-05 1020.99) (7.1959e-05 7.1959e-05 1015.78) (4.99444e-05 4.99444e-05 1010.31) (1.76602e-05 1.76602e-05 1005.9)
2400          (0.000191368 0.000191368 3005.4) (0.000191368 0.000191368 3005.4) (0.000569875 0.000569875 3003.68) (0.000966403 0.000966403 3000.71) (0.00136646 0.00136646 2996.43) (0.00159326 0.00159326 1991.07) (-6.43325e-05 -6.43325e-05 3121.35) (-8.83163e-05 -8.83163e-05 1020.95) (-7.94003e-05 -7.94003e-05 1016.23) (-5.47148e-05 -5.47148e-05 1011.25) (-1.90606e-05 -1.90605e-05 1007.21)
2450          (0.000170144 0.000170143 3003.23) (0.000170144 0.000170143 3003.23) (0.000566566 0.000566566 3001.55) (0.000976162 0.000976162 2998.65) (0.00134365 0.00134365 2994.51) (0.00142982 0.00142982 1989.91) (-4.97005e-05 -4.97005e-05 3119.95) (-5.96e-05 -5.96e-05 1020.91) (-5.44489e-05 -5.44489e-05 1016.63) (-3.79705e-05 -3.79705e-05 1012.09) (-1.34186e-05 -1.34186e-05 1008.42)
2500          (8.38932e-05 8.38932e-05 3000.97) (8.38932e-05 8.38932e-05 3000.97) (0.00049412 0.00049412 2999.35) (0.000881103 0.000881103 2996.57) (0.00110394 0.00110394 2992.69) (0.000891748 0.000891748 1988.95) (-0.000265594 -0.000265594 3119.1) (-0.000239977 -0.000239977 1020.9) (-0.000216009 -0.000216009 1016.98) (-0.000144638 -0.000144638 1012.86) (-4.06757e-05 -4.06757e-05 1009.51)
2550          (8.41457e-05 8.41457e-05 2998.93) (8.41457e-05 8.41457e-05 2998.93) (0.000611079 0.000611079 2997.4) (0.00106888 0.00106888 2994.79) (0.00126199 0.00126199 2991.14) (0.000948759 0.000948759 1988.05) (-0.000258829 -0.000258829 3118.01) (-0.000223403 -0.000223403 1020.91) (-0.00019884 -0.00019884 1017.32) (-0.000138311 -0.000138311 1013.56) (-4.74746e-05 -4.74746e-05 1010.51)
2600          (0.000344979 0.000344978 2996.99) (0.000344979 0.000344978 2996.99) (0.000430423 0.000430423 2995.55) (0.000512751 0.000512751 2993.1) (0.000610151 0.000610151 2989.68) (-0.00047677 -0.00047677 1987.25) (-0.00103845 -0.00103845 3117.23) (-0.000723047 -0.000723047 1020.93) (-0.000522074 -0.000522074 1017.63) (-0.000220475 -0.000220475 1014.18) (6.92814e-05 6.92814e-05 1011.4)
2650          (0.000426793 0.000426793 2995.72) (0.000426793 0.000426793 2995.72) (0.000472739 0.000472739 2994.33) (0.00054028 0.00054028 2991.94) (0.000711522 0.000711522 2988.53) (0.000382884 0.000382884 1986.38) (-0.000415491 -0.000415491 3115.69) (-0.000294783 -0.000294783 1020.91) (-0.000247378 -0.000247378 1017.92) (-0.000160216 -0.000160216 1014.77) (-4.99199e-05 -4.99199e-05 1012.23)
2700          (0.00047997 0.00047997 2994.38) (0.00047997 0.00047997 2994.38) (0.000786289 0.000786289 2993.01) (0.00106979 0.00106979 2990.65) (0.00134319 0.00134319 2987.29) (0.00145206 0.00145206 1985.64) (0.000495609 0.000495609 3114.83) (0.000464088 0.000464088 1020.88) (0.000313804 0.000313804 1018.17) (0.000152897 0.000152897 1015.3) (3.04263e-05 3.04263e-05 1012.99)
2750          (0.000415759 0.000415759 2993.42) (0.000415759 0.000415759 2993.42) (0.000631395 0.000631395 2992.06) (0.000844683 0.000844683 2989.71) (0.00108095 0.00108095 2986.31) (0.000817644 0.000817644 1984.9) (-0.000189755 -0.000189755 3113.56) (-8.53612e-05 -8.53612e-05 1020.84) (-7.83479e-05 -7.83479e-05 1018.39) (-5.57467e-05 -5.57467e-05 1015.8) (-1.98548e-05 -1.98547e-05 1013.69)
2800          (5.64358e-06 5.64306e-06 2992.19) (5.64358e-06 5.64306e-06 2992.19) (9.99563e-05 9.99559e-05 2990.82) (0.000178143 0.000178143 2988.46) (0.000214262 0.000214262 2985.09) (-0.000710644 -0.000710644 1984.28) (-0.00130208 -0.00130208 3113.36) (-0.0012909 -0.0012909 1020.8) (-0.00115656 -0.00115656 1018.59) (-0.000761744 -0.000761744 1016.23) (-0.000193502 -0.000193502 1014.3)
2850          (0.000395332 0.000395332 2991.09) (0.000395332 0.000395332 2991.09) (0.000564268 0.000564268 2989.74) (0.000694552 0.000694552 2987.45) (0.000753361 0.000753361 2984.27) (-0.000119624 -0.000119624 1983.8) (-0.000577163 -0.000577163 3112.6) (-0.000345758 -0.000345758 1020.81) (-0.000286037 -0.000286037 1018.77) (-0.000160075 -0.000160075 1016.63) (-7.33216e-06 -7.33215e-06 1014.88)
2900          (0.000407682 0.000407682 2990.24) (0.000407682 0.000407682 2990.24) (0.000590524 0.000590524 2988.93) (0.00074196 0.00074196 2986.7) (0.000872803 0.000872803 2983.58) (0.000386578 0.000386578 1983.31) (-0.000439429 -0.000439429 3111.72) (-0.00030045 -0.00030045 1020.81) (-0.000254581 -0.000254581 1018.94) (-0.000166844 -0.000166844 1016.98) (-5.25428e-05 -5.25428e-05 1015.39)
2950          (0.000415385 0.000415385 2989.24) (0.000415385 0.000415385 2989.24) (0.000682631 0.000682631 2987.96) (0.000919547 0.000919547 2985.79) (0.0010965 0.0010965 2982.77) (0.00103947 0.00103947 1982.89) (0.00029489 0.00029489 3111.41) (0.000329096 0.000329096 1020.81) (0.000284304 0.000284304 1019.1) (0.000185586 0.000185586 1017.31) (5.24454e-05 5.24454e-05 1015.86)
3000          (0.000399041 0.000399041 2988.26) (0.000399041 0.000399041 2988.26) (0.000593732 0.000593732 2987.02) (0.000747713 0.000747713 2984.93) (0.0008352 0.0008352 2982.05) (0.000493883 0.000493883 1982.52) (-0.000306493 -0.000306493 3111.08) (-0.000202412 -0.000202412 1020.82) (-0.000177606 -0.000177606 1019.25) (-0.000126095 -0.000126095 1017.61) (-4.8174e-05 -4.8174e-05 1016.29)
3050          (0.000395534 0.000395534 2987.61) (0.000395534 0.000395534 2987.61) (0.000610091 0.000610091 2986.4) (0.000792401 0.000792401 2984.36) (0.000956114 0.000956114 2981.51) (0.000707921 0.000707921 1982.11) (-0.000148623 -0.000148623 3110.33) (-5.3228e-05 -5.3228e-05 1020.81) (-4.70647e-05 -4.70647e-05 1019.39) (-3.26662e-05 -3.26662e-05 1017.9) (-1.13696e-05 -1.13696e-05 1016.69)
3100          (0.00039171 0.00039171 2987.01) (0.00039171 0.00039171 2987.01) (0.000625881 0.000625881 2985.82) (0.000838238 0.000838238 2983.8) (0.00103785 0.00103785 2980.97) (0.000928866 0.000928866 1981.76) (6.08041e-05 6.08041e-05 3109.87) (0.000129077 0.000129077 1020.8) (0.000118999 0.000118999 1019.51) (7.98185e-05 7.98185e-05 1018.14) (2.07165e-05 2.07165e-05 1017.04)
3150          (0.000497625 0.000497625 2986.24) (0.000497625 0.000497625 2986.24) (0.000786038 0.000786039 2985.07) (0.0010407 0.0010407 2983.09) (0.00119625 0.00119625 2980.33) (0.000593078 0.000593078 1981.46) (0.000273752 0.000273752 3109.81) (0.000354714 0.000354714 1020.81) (0.000383943 0.000383943 1019.61) (0.000327792 0.000327792 1018.37) (0.000170315 0.000170315 1017.37)
3200          (0.000404497 0.000404497 2985.53) (0.000404497 0.000404497 2985.53) (0.000599794 0.000599794 2984.4) (0.000726041 0.000726041 2982.5) (0.000827617 0.000827617 2979.92) (0.000490832 0.000490832 1981.25) (-0.000283451 -0.000283451 3109.46) (-0.000170472 -0.000170472 1020.84) (-0.000141848 -0.000141848 1019.72) (-9.11964e-05 -9.11964e-05 1018.58) (-2.44724e-05 -2.44724e-05 1017.67)
3250          (0.000385651 0.000385651 2985.08) (0.000385651 0.000385651 2985.08) (0.000592187 0.000592187 2983.97) (0.000752779 0.000752779 2982.11) (0.000911035 0.000911035 2979.53) (0.000717462 0.000717462 1980.97) (-0.000106594 -0.000106594 3109.03) (-2.16939e-05 -2.16939e-05 1020.83) (-2.07176e-05 -2.07176e-05 1019.82) (-1.70171e-05 -1.70171e-05 1018.77) (-8.54052e-06 -8.54051e-06 1017.93)
3300          (0.00037507 0.00037507 2984.66) (0.00037507 0.00037507 2984.66) (0.000542881 0.000542881 2983.57) (0.000674115 0.000674116 2981.73) (0.000808007 0.000808007 2979.15) (0.00043009 0.00043009 1980.71) (-0.000360429 -0.000360429 3108.68) (-0.000253522 -0.000253522 1020.82) (-0.000228393 -0.000228393 1019.91) (-0.000156449 -0.000156449 1018.95) (-5.3077e-05 -5.3077e-05 1018.18)
3350          (0.000246927 0.000246926 2984.05) (0.000246927 0.000246926 2984.05) (0.000511808 0.000511808 2982.98) (0.00076252 0.00076252 2981.16) (0.000970765 0.000970764 2978.66) (0.00107381 0.00107381 1980.52) (5.13022e-05 5.13021e-05 3108.83) (2.4323e-05 2.4323e-05 1020.83) (-5.86398e-06 -5.86398e-06 1019.98) (-3.06765e-05 -3.06765e-05 1019.1) (-3.60003e-05 -3.60003e-05 1018.39)
3400          (0.000143002 0.000143002 2983.45) (0.000143002 0.000143002 2983.45) (0.000495553 0.000495553 2982.41) (0.000841571 0.000841571 2980.67) (0.00115875 0.00115875 2978.34) (0.00162623 0.00162623 1980.4) (0.000205949 0.000205949 3108.68) (0.000123294 0.000123294 1020.86) (0.000104588 0.000104588 1020.06) (7.01302e-05 7.01302e-05 1019.25) (2.05145e-05 2.05145e-05 1018.6)
3450          (0.000139557 0.000139557 2983.04) (0.000139557 0.000139557 2983.04) (0.000481198 0.000481198 2982.03) (0.000818891 0.000818891 2980.35) (0.00114526 0.00114526 2978.07) (0.00160917 0.00160917 1980.23) (0.000179441 0.000179441 3108.42) (0.00010604 0.00010604 1020.87) (8.97258e-05 8.97258e-05 1020.13) (5.90333e-05 5.90333e-05 1019.38) (1.77541e-05 1.77541e-05 1018.79)
3500          (0.00017617 0.00017617 2982.69) (0.00017617 0.00017617 2982.69) (0.000472087 0.000472087 2981.7) (0.000761466 0.000761466 2980.06) (0.0010413 0.0010413 2977.82) (0.00132144 0.00132144 1980.05) (-0.000179768 -0.000179768 3108.14) (-0.000225326 -0.000225326 1020.88) (-0.000205323 -0.000205323 1020.2) (-0.000146349 -0.000146349 1019.51) (-5.517e-05 -5.517e-05 1018.97)
3550          (0.000169117 0.000169117 2982.46) (0.000169117 0.000169117 2982.46) (0.000470348 0.000470348 2981.48) (0.000771779 0.000771779 2979.86) (0.0010794 0.0010794 2977.62) (0.00130749 0.00130749 1979.9) (-0.000134143 -0.000134143 3107.88) (-0.000166751 -0.000166751 1020.87) (-0.000148412 -0.000148412 1020.26) (-9.89568e-05 -9.89568e-05 1019.62) (-3.03972e-05 -3.03972e-05 1019.11)
3600          (0.000172763 0.000172763 2982.22) (0.000172763 0.000172763 2982.22) (0.000479561 0.000479562 2981.25) (0.000793229 0.000793229 2979.64) (0.00111978 0.00111978 2977.4) (0.00133541 0.00133541 1979.75) (-8.25924e-05 -8.25924e-05 3107.64) (-0.000108139 -0.000108139 1020.86) (-9.51159e-05 -9.51159e-05 1020.31) (-6.14647e-05 -6.14647e-05 1019.73) (-1.6622e-05 -1.6622e-05 1019.26)
3650          (0.000186594 0.000186594 2981.97) (0.000186594 0.000186594 2981.97) (0.000498867 0.000498867 2981.02) (0.000820783 0.000820783 2979.41) (0.00115366 0.00115366 2977.17) (0.00137304 0.00137304 1979.6) (8.19212e-07 8.19191e-07 3107.45) (-1.92386e-05 -1.92386e-05 1020.86) (-1.66696e-05 -1.66696e-05 1020.35) (-1.11453e-05 -1.11453e-05 1019.83) (-4.09966e-06 -4.09965e-06 1019.41)
3700          (0.000189518 0.000189518 2981.79) (0.000189518 0.000189518 2981.79) (0.000495502 0.000495502 2980.84) (0.000813738 0.000813738 2979.24) (0.00114066 0.00114066 2977) (0.00137866 0.00137866 1979.5) (5.39754e-05 5.39754e-05 3107.32) (2.32942e-05 2.32942e-05 1020.85) (1.7713e-05 1.7713e-05 1020.39) (6.2597e-06 6.25969e-06 1019.9) (-5.91327e-06 -5.91325e-06 1019.52)
3750          (0.000179106 0.000179106 2981.57) (0.000179106 0.000179106 2981.57) (0.00049296 0.00049296 2980.63) (0.000825096 0.000825096 2979.03) (0.001164 0.001164 2976.8) (0.00135387 0.00135387 1979.37) (6.45225e-05 6.45225e-05 3107.16) (4.73323e-05 4.73323e-05 1020.85) (5.05244e-05 5.05244e-05 1020.43) (4.07673e-05 4.07673e-05 1019.99) (1.61002e-05 1.61002e-05 1019.64)
3800          (0.00017175 0.00017175 2981.38) (0.00017175 0.00017175 2981.38) (0.000504663 0.000504662 2980.45) (0.000851442 0.000851442 2978.86) (0.00119794 0.00119794 2976.64) (0.00135764 0.00135764 1979.27) (-0.000123666 -0.000123666 3107.04) (-0.000147527 -0.000147527 1020.84) (-0.00015074 -0.00015074 1020.46) (-0.000121912 -0.000121912 1020.07) (-5.52188e-05 -5.52188e-05 1019.75)