# Probe 0 (0.0015 0.0015 0)
# Probe 1 (0.0015 0.0015 0.01)
# Probe 2 (0.0015 0.0015 0.02)
# Probe 3 (0.0015 0.0015 0.03)
# Probe 4 (0.0015 0.0015 0.04)
# Probe 5 (0.0015 0.0015 0.05)
# Probe 6 (0.0015 0.0015 0.06)
# Probe 7 (0.0015 0.0015 0.07)
# Probe 8 (0.0015 0.0015 0.08)
# Probe 9 (0.0015 0.0015 0.09)
# Probe 10 (0.0015 0.0015 0.1)
# Time        0             1             2             3             4             5             6             7             8             9             10           
50            (7.60007e-11 8.4297e-12 6.86874e-11) (7.60007e-11 8.4297e-12 6.86874e-11) (1.15763e-12 -5.03719e-12 1.73933e-10) (-9.05404e-12 -4.69576e-12 5.08723e-10) (-6.26403e-11 -1.32866e-11 1.00992e-09) (-2.1171e-12 -7.40956e-11 1.53654e-09) (1.00032e-11 -1.03682e-11 6.92144e-10) (1.26952e-12 2.38987e-11 1.07749e-09) (-1.14646e-11 2.39358e-11 9.49519e-10) (-2.19693e-12 1.0258e-11 9.27387e-10) (3.24048e-14 1.23146e-11 9.75648e-10)
100           (6.70882e-11 7.99198e-11 -1.20882e-10) (6.70882e-11 7.99198e-11 -1.20882e-10) (-1.63142e-11 -1.41626e-10 1.7549e-10) (-3.78042e-12 -7.22841e-11 1.09695e-09) (-8.41991e-11 1.50833e-10 1.39996e-09) (7.03244e-11 -1.23757e-12 2.7615e-09) (1.13858e-11 1.27771e-12 1.88593e-09) (1.07741e-12 1.15611e-11 3.0831e-09) (-1.25083e-11 1.24624e-11 2.90817e-09) (8.37285e-14 2.42104e-14 2.82049e-09) (-1.2607e-11 -1.35456e-11 2.81878e-09)
150           (-8.29882e-11 -5.94266e-11 -1.62403e-11) (-8.29882e-11 -5.94266e-11 -1.62403e-11) (-7.38156e-11 1.09579e-11 1.00588e-10) (-7.08509e-11 7.54456e-11 -9.16834e-11) (-9.95133e-13 3.62572e-12 -1.42321e-10) (-8.43185e-11 -1.46864e-10 1.15023e-09) (1.24787e-11 1.00566e-11 7.87186e-10) (-2.41553e-12 2.11189e-12 1.31178e-09) (-2.81381e-13 2.26698e-11 1.25295e-09) (-1.13612e-11 -1.17359e-12 1.22785e-09) (-7.27986e-14 1.36301e-11 1.31511e-09)
200           (1.41256e-12 6.91683e-11 1.52242e-10) (1.41256e-12 6.91683e-11 1.52242e-10) (9.36719e-12 1.51228e-12 7.0012e-10) (-2.38532e-13 -7.2755e-11 1.27902e-09) (6.9302e-11 7.35806e-11 1.83809e-09) (1.29952e-10 7.04051e-11 3.00196e-09) (1.03499e-11 -2.12684e-12 1.82024e-09) (1.43927e-13 1.36407e-11 3.02187e-09) (-2.43185e-12 1.12696e-11 2.98846e-09) (-1.25033e-11 1.35318e-11 3.01776e-09) (-1.15952e-12 -1.15737e-11 3.11964e-09)
250           (1.03958e-10 -3.41514e-11 -1.92285e-10) (1.03958e-10 -3.41514e-11 -1.92285e-10) (-3.58524e-12 7.48995e-13 -7.53054e-12) (-3.54781e-11 -3.37614e-11 4.51166e-10) (1.98715e-12 4.97275e-11 1.53004e-10) (1.46074e-10 -5.37411e-12 3.05144e-11) (2.95519e-14 4.35357e-12 2.79602e-11) (-1.13189e-11 5.6507e-12 -1.94936e-11) (-1.57553e-11 1.93362e-11 -1.36985e-10) (1.69579e-11 -3.58337e-12 -9.33373e-11) (-3.95037e-15 -7.00999e-12 3.53859e-12)
300           (-3.29632e-14 -3.70169e-11 4.61608e-11) (-3.29632e-14 -3.70169e-11 4.61608e-11) (1.13289e-12 6.91372e-11 1.46142e-10) (1.49763e-10 4.10034e-11 8.50364e-13) (7.67642e-11 1.1451e-11 -2.64377e-10) (3.17517e-11 7.19976e-11 -2.42139e-10) (1.00659e-12 5.74828e-12 -1.47145e-10) (1.25469e-11 2.34315e-14 -2.66711e-10) (1.34402e-11 -1.03047e-11 -3.74715e-10) (5.47912e-12 -2.31214e-14 -4.14101e-10) (-2.91634e-13 1.58682e-11 -3.41153e-10)
350           (5.0532e-12 7.20402e-11 4.45502e-10) (5.0532e-12 7.20402e-11 4.45502e-10) (-7.70945e-11 -3.76865e-12 8.20085e-10) (6.58393e-11 1.4416e-10 6.24959e-10) (-6.98624e-11 -7.36653e-11 9.67366e-10) (6.25835e-11 -7.06272e-11 3.19397e-09) (1.31842e-12 1.1499e-11 2.02427e-09) (-1.20324e-12 -2.1111e-12 3.38439e-09) (1.2912e-13 2.29842e-11 3.56879e-09) (2.11534e-12 -1.23547e-11 3.69006e-09) (-6.34926e-14 -9.95941e-13 3.74444e-09)
400           (-1.05581e-11 7.23829e-11 -1.37404e-11) (-1.05581e-11 7.23829e-11 -1.37404e-11) (7.31695e-11 -6.65962e-11 -1.82088e-10) (-9.20767e-12 -7.16605e-11 -2.8285e-10) (-2.63459e-12 -3.45945e-12 1.105e-10) (9.75021e-12 2.70524e-12 1.2749e-09) (-1.14945e-11 2.25722e-11 8.62588e-10) (8.54781e-15 9.48384e-13 1.43241e-09) (-1.13715e-11 -7.1641e-14 1.48398e-09) (9.72449e-13 1.18388e-14 1.6121e-09) (1.01709e-11 -9.62793e-13 1.66915e-09)
450           (-3.12607e-12 -5.18261e-12 -2.68915e-10) (-3.12607e-12 -5.18261e-12 -2.68915e-10) (-1.73942e-12 1.47012e-10 -2.13277e-10) (-6.99184e-12 3.49655e-12 2.05604e-10) (-4.97652e-12 -1.35266e-12 8.6242e-10) (-1.40726e-10 1.11424e-11 2.47365e-09) (-1.10499e-11 2.16741e-11 1.49116e-09) (-1.25522e-11 -9.71121e-13 2.52747e-09) (2.15311e-11 -9.7169e-13 2.65192e-09) (-2.38051e-11 1.13551e-11 2.70023e-09) (-3.90649e-14 1.03512e-11 2.82897e-09)
500           (1.51683e-11 -4.42951e-12 2.5685e-10) (1.51683e-11 -4.42951e-12 2.5685e-10) (8.74801e-11 -6.41142e-12 4.69462e-10) (1.34518e-10 7.55316e-11 2.73777e-10) (-1.4795e-10 1.94771e-12 -1.83197e-10) (-2.16031e-12 -5.29063e-12 8.04757e-10) (-1.04008e-12 1.25612e-13 7.57775e-10) (-1.23051e-11 -1.0787e-12 1.27467e-09) (2.29366e-11 2.36655e-11 1.3987e-09) (1.05545e-12 -2.24783e-11 1.49798e-09) (2.39943e-11 1.25489e-11 1.49607e-09)
550           (6.66428e-12 6.35644e-11 1.16746e-10) (6.66428e-12 6.35644e-11 1.16746e-10) (6.8081e-11 1.40651e-11 5.13129e-10) (-3.57853e-12 6.24117e-12 1.44305e-09) (5.65675e-12 -1.34398e-10 2.33177e-09) (-4.96683e-12 -1.34551e-10 4.77826e-09) (1.10486e-13 2.1745e-11 3.14746e-09) (1.28052e-12 -1.23628e-11 5.11683e-09) (-1.16434e-12 -2.16016e-11 5.0375e-09) (1.23807e-11 1.01515e-11 5.09269e-09) (2.17257e-11 2.50445e-13 5.23425e-09)
600           (-6.78619e-11 6.74844e-11 4.47184e-10) (-6.78619e-11 6.74844e-11 4.47184e-10) (-1.76758e-12 5.8037e-12 9.93635e-10) (6.37852e-11 5.68098e-13 1.27774e-09) (-7.06319e-11 -7.74279e-11 1.56118e-09) (5.08501e-13 -3.77983e-12 3.16534e-09) (-1.09638e-12 -2.39882e-11 1.99513e-09) (1.35704e-11 -1.32098e-12 3.22311e-09) (2.16334e-11 -1.03101e-11 3.19822e-09) (5.13487e-14 -1.02993e-12 3.28116e-09) (-1.02581e-12 -1.03487e-12 3.38195e-09)
650           (-6.65704e-11 3.33435e-12 1.91235e-10) (-6.65704e-11 3.33435e-12 1.91235e-10) (4.52798e-12 2.09984e-12 3.58137e-10) (-4.25928e-12 3.91404e-12 1.70539e-10) (7.07057e-11 -6.38703e-11 2.37545e-10) (6.4763e-11 -6.76717e-11 1.14597e-09) (1.24437e-11 1.20846e-11 7.33337e-10) (6.8154e-13 -1.08924e-11 1.22527e-09) (1.25385e-11 -1.14051e-12 1.24113e-09) (-1.15672e-11 1.24894e-11 1.20684e-09) (1.06991e-11 1.03086e-11 1.29665e-09)
700           (7.16299e-11 -1.38641e-10 -1.62226e-10) (7.16299e-11 -1.38641e-10 -1.62226e-10) (2.92566e-12 -6.04251e-11 -4.66069e-10) (1.51713e-13 6.86415e-13 -7.23063e-10) (6.85755e-11 1.4515e-10 -5.85454e-10) (-7.52748e-11 1.32483e-10 6.66547e-10) (7.99736e-14 1.0116e-11 6.83404e-10) (-1.03346e-11 1.24183e-11 1.01692e-09) (-1.36217e-11 -1.78636e-13 8.12687e-10) (1.37359e-12 -1.16139e-11 7.24276e-10) (-1.2417e-11 -1.23059e-11 7.44662e-10)
750           (-6.24381e-11 -1.01376e-10 -3.09848e-11) (-6.24381e-11 -1.01376e-10 -3.09848e-11) (-1.04493e-10 -1.06007e-11 -3.97785e-10) (-4.6949e-12 -2.34088e-12 -5.19385e-10) (-1.64653e-11 1.14536e-11 -3.47101e-10) (7.09723e-11 -4.51535e-12 2.98806e-10) (9.10789e-12 -1.24582e-11 2.89153e-10) (-1.14626e-11 -1.11876e-12 3.29741e-10) (1.15669e-11 -5.38733e-14 2.02427e-10) (-2.77913e-14 2.42705e-11 2.41201e-10) (9.44639e-12 -1.37033e-11 2.9956e-10)
800           (-7.22459e-11 1.51138e-10 -9.29343e-11) (-7.22459e-11 1.51138e-10 -9.29343e-11) (-8.83699e-12 -1.37501e-10 1.55048e-10) (7.44755e-11 -6.30425e-11 7.59794e-10) (-6.45035e-11 -7.86019e-11 1.69985e-09) (-7.11363e-11 7.17886e-11 4.53203e-09) (1.34264e-14 -1.09668e-12 3.00849e-09) (-1.04592e-11 1.13917e-11 4.99273e-09) (5.54585e-14 1.90944e-12 5.09239e-09) (-1.14746e-11 -2.25302e-12 5.18827e-09) (1.04541e-11 1.34796e-11 5.21202e-09)
850           (1.41953e-10 -6.04986e-11 -1.45469e-10) (1.41953e-10 -6.04986e-11 -1.45469e-10) (-5.2235e-12 2.89539e-12 -2.96803e-10) (-1.02673e-12 -2.49232e-12 1.40362e-10) (6.24931e-11 -8.2759e-11 7.13109e-10) (-6.45584e-12 -7.20207e-11 1.86896e-09) (3.40957e-11 1.13006e-14 1.15296e-09) (-2.28905e-11 -1.16525e-11 1.89192e-09) (2.17769e-11 1.11388e-11 1.92518e-09) (2.19348e-12 2.29346e-11 2.02824e-09) (-1.13251e-11 3.78711e-15 2.06669e-09)
900           (-1.14052e-11 -6.2704e-11 2.24039e-10) (-1.14052e-11 -6.2704e-11 2.24039e-10) (-1.28378e-11 1.50082e-10 3.34502e-10) (-7.46236e-11 7.35969e-11 2.03887e-10) (7.28576e-11 -5.12515e-12 5.77648e-10) (-7.26138e-11 -2.59479e-12 2.40305e-09) (1.97921e-13 -2.37036e-13 1.67752e-09) (2.18029e-11 1.28539e-12 2.72208e-09) (-1.28015e-11 -1.23033e-12 2.69525e-09) (-9.95808e-13 2.24721e-11 2.7692e-09) (-2.84166e-13 1.13787e-11 2.89598e-09)
950           (2.28669e-12 7.12005e-11 -2.58538e-10) (2.28669e-12 7.12005e-11 -2.58538e-10) (6.72397e-11 -7.21501e-11 -1.34077e-10) (-6.43095e-11 -1.4089e-10 1.92911e-10) (3.73015e-12 -5.40143e-12 3.1856e-10) (2.15671e-10 1.37621e-10 1.26255e-09) (1.14061e-11 -4.19113e-14 8.75087e-10) (-1.14185e-11 1.88183e-13 1.29482e-09) (1.14108e-11 -1.0495e-11 1.0995e-09) (2.30224e-11 1.02854e-11 1.13154e-09) (2.26898e-11 9.99449e-12 1.18645e-09)
1000          (7.35804e-11 -4.72192e-12 4.60288e-10) (7.35804e-11 -4.72192e-12 4.60288e-10) (6.84856e-11 7.03162e-11 1.79062e-09) (-7.39122e-11 1.21321e-10 2.75451e-09) (1.47267e-10 1.55342e-10 3.15023e-09) (-4.86731e-12 -6.5538e-11 5.34484e-09) (1.11018e-12 1.02615e-11 3.26176e-09) (1.36277e-12 3.12233e-14 5.36158e-09) (-1.23341e-11 2.25478e-13 5.38754e-09) (1.36976e-11 -2.37732e-11 5.45483e-09) (1.19392e-12 -9.96189e-13 5.46675e-09)
1050          (1.2408e-10 7.34668e-11 3.32966e-10) (1.2408e-10 7.34668e-11 3.32966e-10) (-8.01642e-11 -7.26722e-11 1.16075e-09) (-1.47429e-10 8.1066e-11 1.81261e-09) (9.68706e-12 -2.21672e-10 2.3599e-09) (1.80199e-11 6.42e-12 4.53973e-09) (2.16637e-11 1.2486e-11 2.89688e-09) (1.26621e-11 -1.01683e-11 4.70287e-09) (-1.02612e-11 -9.67879e-14 4.58116e-09) (-2.26077e-11 2.40134e-11 4.48351e-09) (2.38866e-11 1.03655e-11 4.44564e-09)
1100          (-4.4943e-13 -5.87895e-11 6.04616e-12) (-4.4943e-13 -5.87895e-11 6.04616e-12) (-6.9616e-11 -7.74395e-11 1.35558e-10) (-6.3537e-12 1.49219e-11 5.48201e-10) (-7.11317e-11 -6.85836e-12 1.15304e-09) (-1.41079e-10 -8.0702e-12 2.03428e-09) (1.14655e-11 5.43638e-14 1.02045e-09) (2.49625e-13 1.15268e-11 1.68209e-09) (-1.25274e-11 -1.12489e-11 1.67097e-09) (-1.26601e-11 1.01456e-11 1.67609e-09) (-2.39708e-11 -7.26621e-14 1.63668e-09)
1150          (6.96849e-11 -7.94053e-11 -7.37042e-11) (6.96849e-11 -7.94053e-11 -7.37042e-11) (-1.8082e-12 6.59495e-12 1.31104e-10) (3.05582e-12 7.92965e-11 3.45564e-10) (1.31488e-10 5.25819e-12 7.38579e-10) (-6.929e-12 -8.18843e-11 1.60217e-09) (-1.21275e-12 1.91329e-13 8.94174e-10) (-2.34895e-12 -1.00076e-12 1.50007e-09) (9.1319e-12 2.14951e-12 1.52427e-09) (2.09662e-12 -8.53578e-13 1.54752e-09) (2.37415e-11 1.07098e-12 1.49007e-09)
1200          (6.96908e-11 1.4692e-12 1.80847e-10) (6.96908e-11 1.4692e-12 1.80847e-10) (6.45316e-11 7.90831e-11 2.89222e-10) (-1.44662e-10 -5.83677e-12 1.32808e-10) (8.57842e-11 9.22295e-12 9.43781e-11) (-1.18526e-11 1.6259e-11 2.59031e-10) (1.29779e-13 -1.2536e-11 1.49742e-10) (-2.727e-14 8.5487e-14 2.788e-10) (1.07834e-12 -1.13535e-12 3.40484e-10) (1.02691e-11 1.46192e-12 4.21648e-10) (-2.38356e-11 -1.13261e-11 4.39456e-10)
1250          (5.24035e-12 4.04579e-12 4.03954e-10) (5.24035e-12 4.04579e-12 4.03954e-10) (-2.30188e-11 -2.67095e-12 1.27426e-09) (-7.26206e-11 -1.16323e-11 1.92724e-09) (9.54924e-12 -7.74069e-11 2.12298e-09) (-3.73404e-12 7.80786e-11 4.20451e-09) (-1.13162e-12 2.30227e-13 2.68662e-09) (-9.78758e-13 -1.13247e-11 4.31074e-09) (-2.43015e-13 -2.06655e-11 4.23176e-09) (1.46738e-13 -1.4133e-13 4.24847e-09) (2.27072e-11 -2.02462e-12 4.194e-09)
1300          (1.44189e-12 -1.02052e-11 3.04932e-10) (1.44189e-12 -1.02052e-11 3.04932e-10) (-8.8251e-12 7.43711e-11 7.3841e-10) (-1.03625e-11 7.30507e-12 1.6503e-09) (1.25418e-10 -1.91383e-12 2.98897e-09) (1.48772e-10 6.88206e-11 5.16016e-09) (-1.36676e-11 6.86948e-14 2.99746e-09) (-1.37614e-11 -2.3917e-12 5.0328e-09) (-1.59796e-13 -2.27991e-11 5.12262e-09) (-2.15631e-12 -1.14293e-11 5.18054e-09) (-1.12979e-11 -2.16175e-11 5.35314e-09)
1350          (1.29312e-10 -1.49803e-10 -9.45277e-11) (1.29312e-10 -1.49803e-10 -9.45277e-11) (-9.7851e-12 1.8842e-11 -4.81812e-11) (7.06327e-11 -8.27031e-12 4.33863e-10) (-7.46466e-11 5.43615e-12 1.20235e-09) (2.19324e-10 7.08241e-11 4.0135e-09) (1.1101e-12 1.13501e-11 2.7568e-09) (2.28147e-11 -2.39555e-11 4.4161e-09) (1.13017e-11 -1.13017e-11 4.27557e-09) (1.05002e-11 1.36901e-11 4.26122e-09) (1.00902e-12 1.26088e-12 4.40323e-09)
1400          (-4.43413e-12 -2.22126e-12 -4.73604e-12) (-4.43413e-12 -2.22126e-12 -4.73604e-12) (-7.5772e-11 -3.11444e-12 -6.06981e-11) (-9.0925e-14 -1.22473e-11 -4.90634e-11) (-7.04898e-11 6.19312e-11 3.4968e-10) (6.85032e-11 6.07232e-11 1.40377e-09) (-2.28015e-12 1.11952e-11 9.82766e-10) (1.18973e-12 -2.26962e-11 1.52636e-09) (-2.27236e-11 2.86475e-14 1.37418e-09) (1.09466e-11 1.13148e-12 1.24101e-09) (-1.01631e-11 -1.32644e-11 1.10073e-09)
1450          (-6.70983e-11 -6.40171e-11 1.54349e-10) (-6.70983e-11 -6.40171e-11 1.54349e-10) (5.81362e-11 6.72762e-12 5.95032e-10) (1.678e-11 -7.32393e-11 1.24432e-09) (-3.77806e-12 1.50268e-11 1.85667e-09) (-6.2055e-11 -6.69705e-11 2.25816e-09) (1.1363e-11 -1.34666e-12 1.08437e-09) (-5.29685e-14 3.4554e-14 1.81471e-09) (1.04705e-12 -9.31041e-15 1.85985e-09) (9.19364e-12 -1.13066e-11 1.93305e-09) (-1.06041e-12 -1.28426e-12 1.95156e-09)
1500          (-2.91129e-12 6.44493e-11 6.14865e-11) (-2.91129e-12 6.44493e-11 6.14865e-11) (-6.11805e-12 6.73709e-12 2.73324e-10) (8.03705e-11 -7.14561e-11 5.91021e-10) (-7.09967e-11 -6.27243e-11 8.61996e-10) (-6.31647e-12 -7.30236e-11 1.45394e-09) (2.2674e-11 1.76973e-13 6.96237e-10) (-1.24388e-11 -1.0755e-12 1.12611e-09) (-1.03348e-12 -1.12661e-12 1.02603e-09) (1.0462e-11 -1.14445e-12 9.63869e-10) (2.50929e-11 -1.23605e-11 9.89423e-10)
1550          (-1.49906e-10 -1.47997e-10 5.0132e-10) (-1.49906e-10 -1.47997e-10 5.0132e-10) (-1.23782e-11 8.08528e-12 8.08076e-10) (6.38252e-11 -6.94542e-12 7.66298e-10) (-6.98464e-11 1.51067e-10 1.3547e-09) (-7.18296e-11 -8.40975e-11 2.60068e-09) (-1.12062e-11 3.67199e-13 1.51154e-09) (-1.26454e-11 1.13685e-11 2.44583e-09) (-1.14482e-11 -9.02683e-13 2.33347e-09) (1.00758e-11 1.66945e-13 2.32354e-09) (-1.45022e-12 -2.39487e-11 2.41809e-09)
1600          (8.094e-11 -8.10007e-11 -5.42944e-11) (8.094e-11 -8.10007e-11 -5.42944e-11) (1.41823e-10 -6.69309e-11 5.52623e-10) (-1.47258e-10 8.36058e-11 1.04902e-09) (-5.73805e-12 -2.98869e-12 1.34151e-09) (-3.87968e-12 2.00576e-13 2.815e-09) (1.13173e-11 -3.40259e-14 1.70799e-09) (2.37556e-11 2.3937e-11 2.82025e-09) (1.23538e-12 -1.25627e-11 2.85777e-09) (-2.24285e-12 9.49776e-13 2.94626e-09) (1.42105e-12 -9.19683e-13 3.04969e-09)
1650          (6.54219e-11 -5.71928e-12 -1.54066e-10) (6.54219e-11 -5.71928e-12 -1.54066e-10) (-6.23774e-11 7.45738e-12 -4.56296e-10) (-1.38969e-10 7.42206e-11 -1.19358e-10) (1.16787e-11 1.13162e-11 3.79125e-10) (6.54047e-11 6.99429e-11 8.11396e-10) (1.16859e-12 1.24422e-11 4.16012e-10) (1.24491e-11 1.16788e-12 6.02865e-10) (-2.25907e-11 1.14105e-11 5.20406e-10) (1.01619e-11 -2.63958e-14 5.76852e-10) (-1.13962e-11 1.46864e-13 7.74883e-10)
1700          (-1.6318e-12 7.26142e-11 -3.07365e-11) (-1.6318e-12 7.26142e-11 -3.07365e-11) (6.47651e-13 6.6356e-11 3.14319e-10) (-4.48058e-14 -7.13262e-11 4.98427e-10) (-7.25888e-11 -2.88988e-13 5.60967e-10) (7.96691e-11 6.94338e-11 1.05385e-09) (1.11137e-11 -1.02473e-11 5.55727e-10) (-1.1661e-11 1.03727e-11 9.94985e-10) (-1.23522e-11 1.26326e-14 1.06366e-09) (-1.1577e-11 -1.22191e-12 1.13628e-09) (1.1421e-11 -1.24296e-11 1.28368e-09)
1750          (-7.26954e-11 7.4276e-11 1.55482e-10) (-7.26954e-11 7.4276e-11 1.55482e-10) (3.83184e-12 1.13446e-11 3.17662e-10) (3.33922e-12 4.31527e-12 4.97399e-10) (-4.24772e-12 -9.209e-12 9.17976e-10) (-7.42035e-11 1.24128e-12 3.00376e-09) (-6.3599e-14 6.98885e-13 2.01222e-09) (1.13329e-11 -1.33498e-11 3.34102e-09) (2.69339e-14 -1.14974e-11 3.33793e-09) (-3.45918e-13 -1.19707e-11 3.44091e-09) (1.1032e-12 1.18996e-11 3.63929e-09)
1800          (-3.88971e-11 -1.00984e-10 1.55681e-10) (-3.88971e-11 -1.00984e-10 1.55681e-10) (5.92251e-12 1.16541e-10 2.08194e-10) (-7.33558e-11 4.46385e-11 -1.97986e-10) (-6.73829e-12 3.75484e-13 -4.8187e-10) (-6.92824e-12 -3.46823e-11 -3.22034e-10) (-2.38509e-11 -1.71354e-11 -2.20629e-10) (1.08606e-12 -2.29877e-12 -3.60219e-10) (-1.70602e-11 6.65789e-12 -3.89811e-10) (-1.11735e-12 -7.89437e-12 -4.05197e-10) (1.33262e-11 -5.67508e-12 -3.5714e-10)
1850          (7.39343e-11 -7.20149e-11 -5.81592e-12) (7.39343e-11 -7.20149e-11 -5.81592e-12) (6.9673e-11 -6.97964e-11 -1.7091e-12) (-7.57008e-11 1.25525e-10 1.82156e-10) (-7.56488e-12 -8.71812e-11 1.04901e-09) (-1.59681e-14 2.48463e-12 3.19345e-09) (-1.1166e-12 1.0335e-11 1.95714e-09) (3.72726e-14 1.1106e-11 3.15675e-09) (1.23996e-11 1.44859e-12 3.0801e-09) (1.26192e-11 -1.25285e-11 3.15852e-09) (-1.2185e-12 1.10436e-12 3.29468e-09)
1900          (5.94491e-11 -6.92062e-11 1.14124e-10) (5.94491e-11 -6.92062e-11 1.14124e-10) (-1.89705e-12 6.87204e-11 3.5482e-10) (-1.45351e-11 -1.44e-10 6.59041e-10) (8.07404e-11 7.25918e-11 9.68156e-10) (6.66218e-11 -8.29482e-12 1.86461e-09) (-2.18088e-12 -2.15837e-12 1.05371e-09) (-2.48423e-11 -1.24986e-11 1.70693e-09) (1.23455e-11 -1.03053e-12 1.73401e-09) (-1.14916e-11 1.26198e-12 1.86798e-09) (1.20637e-13 -1.03539e-11 1.85919e-09)
1950          (6.93157e-12 2.05247e-13 5.24713e-10) (6.93157e-12 2.05247e-13 5.24713e-10) (-7.03197e-11 -6.19085e-11 1.16461e-09) (-5.08905e-13 -1.49288e-10 1.58843e-09) (7.01425e-12 -7.77145e-13 2.16562e-09) (2.3657e-12 1.91215e-12 4.3944e-09) (-2.16233e-11 -1.76278e-13 2.79639e-09) (-1.59085e-13 1.08345e-12 4.58756e-09) (-1.36487e-11 9.2879e-13 4.44778e-09) (-1.19318e-12 -1.03635e-13 4.37415e-09) (4.35498e-14 8.51375e-14 4.45765e-09)
2000          (3.0411e-12 9.40346e-12 -2.53382e-10) (3.0411e-12 9.40346e-12 -2.53382e-10) (5.26505e-13 7.49715e-11 -2.38459e-10) (-6.85185e-11 4.88942e-12 1.88964e-10) (-3.22478e-13 -8.32472e-11 4.28827e-10) (-8.68987e-12 7.52325e-11 8.30952e-10) (-1.16155e-11 1.05047e-11 4.52407e-10) (2.39544e-11 -1.1879e-12 6.93251e-10) (-4.72599e-14 1.46356e-12 6.00394e-10) (-1.16459e-11 3.67816e-14 5.4654e-10) (-1.14512e-11 1.3899e-11 6.45851e-10)
2050          (4.07669e-12 5.01442e-12 4.52187e-11) (4.07669e-12 5.01442e-12 4.52187e-11) (1.00661e-12 6.99548e-12 4.75047e-10) (-7.34526e-11 4.9265e-12 5.41767e-10) (-7.04866e-11 -1.40602e-10 7.87558e-10) (7.44174e-11 -1.28823e-11 2.27057e-09) (1.12413e-11 -1.24359e-11 1.35337e-09) (-1.13844e-11 3.35255e-13 2.12048e-09) (-1.10051e-12 1.2478e-11 1.9025e-09) (1.11868e-13 -1.14508e-11 1.73619e-09) (-2.281e-11 -2.28761e-11 1.69446e-09)
2100          (-3.64858e-12 6.54376e-12 2.87983e-10) (-3.64858e-12 6.54376e-12 2.87983e-10) (-8.61861e-11 -7.66008e-13 5.97756e-10) (4.75316e-12 -7.68605e-11 7.07382e-10) (-1.279e-11 7.56756e-11 9.04486e-10) (-5.98874e-11 -9.46734e-13 1.94504e-09) (1.14694e-11 -1.04236e-11 1.21396e-09) (-1.21445e-13 2.30273e-13 1.92917e-09) (-1.27638e-12 3.07315e-14 1.83211e-09) (-1.15105e-12 1.13374e-11 1.89989e-09) (8.71918e-13 -1.0392e-11 1.99138e-09)
2150          (-1.1463e-10 -2.51648e-11 -2.34101e-10) (-1.1463e-10 -2.51648e-11 -2.34101e-10) (3.84003e-11 -6.53068e-11 -6.09721e-10) (3.54094e-11 4.63123e-12 -6.83822e-10) (-6.76882e-11 -1.11492e-11 -8.55849e-10) (4.17236e-11 1.0901e-10 -8.00176e-10) (-4.77947e-12 -1.14808e-11 -4.48341e-10) (1.59744e-11 1.01485e-11 -6.78172e-10) (6.64832e-12 -1.1313e-11 -6.59701e-10) (2.25457e-12 -6.73144e-12 -6.52011e-10) (-4.61959e-12 1.49424e-13 -5.76837e-10)
2200          (-3.39163e-12 7.08399e-11 8.15077e-11) (-3.39163e-12 7.08399e-11 8.15077e-11) (-1.42907e-10 -5.69037e-11 9.54669e-10) (6.50764e-12 6.98788e-11 1.64855e-09) (-2.53758e-12 1.37489e-10 1.4748e-09) (-4.64127e-13 6.79442e-11 1.93198e-09) (-2.21632e-12 -9.0926e-12 9.70949e-10) (-1.25957e-11 -2.50953e-11 1.47535e-09) (-2.26833e-11 2.50864e-11 1.32986e-09) (-1.25625e-11 2.39908e-11 1.2388e-09) (-6.9475e-14 -1.26254e-11 1.15546e-09)
2250          (-1.10303e-12 7.32411e-11 -5.45426e-11) (-1.10303e-12 7.32411e-11 -5.45426e-11) (-1.26665e-11 2.4632e-12 -4.00361e-10) (-3.20937e-12 1.76146e-11 -2.30752e-10) (-7.74697e-11 1.28869e-11 6.34429e-10) (-8.53748e-12 2.51831e-12 1.55804e-09) (-9.20487e-13 1.24748e-11 8.57654e-10) (1.1235e-11 -1.25541e-11 1.34362e-09) (-1.05597e-12 -1.35536e-11 1.2706e-09) (-2.1563e-14 -2.44616e-13 1.33559e-09) (2.14601e-11 -1.033e-11 1.4735e-09)
2300          (9.50473e-12 8.01394e-11 2.08675e-11) (9.50473e-12 8.01394e-11 2.08675e-11) (7.30383e-11 -6.05092e-11 -3.19812e-11) (1.40014e-10 3.76893e-12 -1.83e-10) (-1.7302e-12 -7.55112e-11 9.51376e-11) (7.55791e-11 -1.42027e-10 1.32416e-09) (-1.1416e-11 1.08087e-11 9.68204e-10) (3.1719e-13 -1.56796e-12 1.60245e-09) (-1.09302e-11 1.25903e-11 1.52047e-09) (2.25562e-12 1.24396e-11 1.4199e-09) (-1.02499e-11 -1.11293e-12 1.35223e-09)
2350          (-7.40607e-11 8.79878e-13 -6.17553e-11) (-7.40607e-11 8.79878e-13 -6.17553e-11) (-7.47591e-11 -2.36437e-12 2.55562e-10) (8.32338e-11 -6.27182e-12 1.05381e-09) (2.1435e-10 -1.07818e-11 2.203e-09) (2.38525e-12 6.37827e-13 4.94301e-09) (2.50295e-11 1.08349e-12 3.05672e-09) (1.1779e-13 1.24513e-11 5.06015e-09) (-1.14394e-11 -1.02011e-12 5.02817e-09) (-6.40857e-14 -8.7847e-14 4.95321e-09) (1.13742e-11 1.13634e-11 4.89227e-09)
2400          (-1.29361e-11 -6.02672e-11 6.09508e-10) (-1.29361e-11 -6.02672e-11 6.09508e-10) (7.95749e-11 -2.8605e-13 1.94091e-09) (-3.62609e-12 1.80517e-11 2.65608e-09) (-7.09191e-11 1.31447e-11 2.60836e-09) (-5.95441e-12 5.8336e-12 4.1614e-09) (1.12978e-12 5.33569e-14 2.47883e-09) (-1.15864e-11 -8.6814e-14 4.20381e-09) (-1.36588e-11 2.37275e-11 4.26109e-09) (5.08747e-14 1.8e-13 4.18933e-09) (1.14086e-11 -1.44032e-13 4.17586e-09)
2450          (7.06661e-13 -8.21615e-11 2.06006e-10) (7.06661e-13 -8.21615e-11 2.06006e-10) (6.97957e-11 -6.76686e-11 8.98995e-10) (1.45576e-10 7.31035e-11 1.64284e-09) (7.7979e-12 -6.9816e-11 2.39248e-09) (1.60665e-10 7.60205e-11 4.16693e-09) (-3.12863e-14 -9.13168e-12 2.38797e-09) (5.75217e-14 1.01734e-11 3.92502e-09) (5.92383e-13 -1.25356e-11 3.99106e-09) (2.75656e-12 -9.23595e-12 4.14555e-09) (-1.25366e-12 -5.75262e-13 4.28054e-09)
2500          (7.46243e-11 6.55998e-11 1.31269e-10) (7.46243e-11 6.55998e-11 1.31269e-10) (-8.70114e-11 1.41305e-11 4.99171e-10) (9.51121e-13 6.6266e-11 7.12162e-10) (5.8416e-12 1.19067e-12 8.6532e-10) (6.70698e-12 -6.8243e-11 1.49265e-09) (1.64335e-14 5.04171e-13 6.82817e-10) (-2.247e-11 1.00008e-11 1.10889e-09) (2.27859e-11 1.23252e-11 1.20177e-09) (-1.2517e-12 1.12596e-11 1.30443e-09) (-2.16885e-12 -1.14141e-11 1.35287e-09)
2550          (-6.81826e-11 7.92227e-11 2.65991e-10) (-6.81826e-11 7.92227e-11 2.65991e-10) (6.66997e-11 -6.65661e-11 2.90966e-10) (1.33959e-10 -7.97243e-11 4.00982e-10) (-7.57418e-12 -6.854e-11 1.32861e-09) (1.465e-10 1.38472e-10 3.3409e-09) (-1.25068e-11 -2.87799e-14 2.18618e-09) (-2.15297e-11 2.07319e-12 3.63111e-09) (-3.6593e-11 -2.26569e-11 3.50499e-09) (-1.13596e-11 -1.14459e-11 3.45625e-09) (-2.268e-11 -6.34268e-14 3.51288e-09)
2600          (-6.06722e-12 3.79456e-11 1.22764e-11) (-6.06722e-12 3.79456e-11 1.22764e-11) (-1.38834e-10 3.15915e-12 -2.95471e-10) (3.96191e-13 3.48146e-11 -5.8924e-10) (-4.00655e-11 1.4331e-10 -3.0196e-10) (-8.27226e-11 6.12059e-11 1.50049e-10) (-5.4452e-12 1.70902e-11 -1.06519e-10) (1.16281e-11 1.71652e-11 -2.13483e-10) (1.27535e-11 7.84615e-12 -2.41161e-10) (-5.58253e-12 8.19048e-12 -2.44152e-10) (4.44738e-12 4.67594e-12 -2.5326e-10)
2650          (8.3925e-11 2.78044e-12 1.47561e-10) (8.3925e-11 2.78044e-12 1.47561e-10) (-3.35678e-12 8.10524e-11 4.26436e-10) (-5.63992e-12 -5.39034e-12 6.57556e-10) (-3.15966e-12 7.53773e-11 1.02285e-09) (7.57369e-11 -1.43544e-10 2.22801e-09) (2.36856e-11 1.12315e-13 1.39999e-09) (1.22262e-11 -1.01837e-11 2.32168e-09) (-1.00656e-11 -1.13011e-11 2.29309e-09) (1.70377e-13 -1.25771e-11 2.27693e-09) (2.24541e-11 1.02566e-11 2.36738e-09)
2700          (-2.75155e-12 4.08052e-12 7.06828e-11) (-2.75155e-12 4.08052e-12 7.06828e-11) (-8.31287e-12 -3.40502e-11 -9.90203e-11) (6.44154e-12 3.29371e-11 -4.35392e-10) (-3.38254e-11 -1.08845e-10 -4.44055e-10) (1.4424e-10 -7.37608e-12 2.34081e-10) (7.91149e-14 6.20216e-14 3.37586e-10) (-1.13673e-11 -2.17945e-11 5.22501e-10) (1.80019e-11 1.80997e-11 4.43225e-10) (1.25129e-11 -1.12528e-11 4.41796e-10) (-1.32447e-13 -1.03876e-12 4.71678e-10)
2750          (7.23959e-11 -7.38733e-11 -8.98887e-11) (7.23959e-11 -7.38733e-11 -8.98887e-11) (1.30546e-10 -6.57604e-11 1.17529e-10) (7.05999e-11 8.3244e-12 5.21001e-10) (-2.74148e-12 -1.429e-10 1.21338e-09) (1.60149e-10 -7.09405e-13 2.73149e-09) (-1.11299e-13 1.29148e-12 1.63564e-09) (-2.25278e-11 1.12732e-11 2.67872e-09) (1.14073e-13 -2.26879e-11 2.64058e-09) (-8.72322e-13 1.14264e-11 2.62941e-09) (-1.12932e-11 -1.16001e-12 2.59452e-09)
2800          (-8.68682e-13 -1.18649e-11 3.68946e-10) (-8.68682e-13 -1.18649e-11 3.68946e-10) (-6.80069e-12 1.40245e-10 9.02325e-10) (-5.62232e-12 5.69904e-11 1.00444e-09) (2.89716e-12 -5.31019e-13 1.42159e-09) (7.87708e-11 1.09118e-11 3.94742e-09) (-2.97109e-15 2.37324e-13 2.52291e-09) (-1.2391e-11 1.24573e-11 4.04141e-09) (1.01832e-11 -2.17196e-11 3.85736e-09) (1.24677e-12 1.25658e-11 3.82446e-09) (-1.24584e-11 -2.39863e-11 3.84091e-09)
2850          (7.34246e-12 8.41321e-13 1.8097e-10) (7.34246e-12 8.41321e-13 1.8097e-10) (-8.22446e-11 8.88027e-11 7.74761e-10) (1.38842e-11 -6.37276e-11 1.77834e-09) (1.38668e-10 6.43136e-12 2.27652e-09) (-4.15325e-12 1.40241e-12 4.36455e-09) (2.36919e-11 1.23957e-11 2.92373e-09) (-1.12958e-11 1.23289e-13 4.72431e-09) (-2.29533e-11 -2.36638e-11 4.4905e-09) (-1.12406e-11 1.25754e-11 4.43365e-09) (9.99803e-12 2.27375e-11 4.49393e-09)
2900          (-7.84512e-11 9.17816e-12 1.8986e-10) (-7.84512e-11 9.17816e-12 1.8986e-10) (-6.56883e-11 6.83372e-11 5.19561e-10) (-9.79079e-12 6.47585e-11 4.95566e-10) (7.13138e-11 -6.7702e-11 5.10021e-10) (-6.8189e-13 -8.41532e-11 2.19838e-09) (-1.2347e-11 8.67582e-14 1.65115e-09) (-4.57758e-14 -1.25496e-12 2.5887e-09) (-1.18863e-12 -1.16193e-12 2.36009e-09) (-1.14095e-11 1.13033e-11 2.30075e-09) (2.21124e-12 -1.06612e-12 2.35216e-09)
2950          (7.39262e-11 6.9713e-11 1.8287e-10) (7.39262e-11 6.9713e-11 1.8287e-10) (-9.46827e-12 -6.42903e-11 5.66088e-10) (7.47702e-11 -6.3557e-11 5.10737e-10) (-4.13785e-12 -1.30314e-12 6.85605e-10) (3.02172e-12 3.16977e-12 2.74841e-09) (8.57767e-15 1.0093e-11 1.88867e-09) (1.68312e-13 -1.11991e-11 3.10682e-09) (2.15297e-12 9.00851e-13 3.11614e-09) (-2.26738e-11 -2.29859e-11 3.18203e-09) (-1.12525e-11 1.35642e-11 3.31238e-09)
3000          (-3.149e-12 7.96027e-11 1.06556e-10) (-3.149e-12 7.96027e-11 1.06556e-10) (7.55387e-11 5.83297e-12 5.07538e-10) (7.26083e-11 1.42252e-10 6.29924e-10) (-1.50554e-10 -6.72545e-11 5.91174e-10) (-7.0302e-11 7.92457e-11 1.38624e-09) (2.38619e-11 -1.12662e-11 8.51079e-10) (-1.37112e-11 1.2427e-11 1.31059e-09) (6.07861e-14 -1.99024e-12 1.10894e-09) (-1.03175e-11 2.91398e-13 1.00029e-09) (1.08365e-13 -1.22584e-11 1.11424e-09)
3050          (1.41891e-10 -6.97749e-11 6.09413e-11) (1.41891e-10 -6.97749e-11 6.09413e-11) (-1.48821e-10 7.44748e-11 1.40205e-10) (-5.16661e-12 -1.42055e-10 1.86679e-10) (-5.56436e-12 -1.09232e-11 3.87756e-10) (1.78596e-12 2.07185e-13 8.88293e-10) (1.03309e-11 -5.10382e-14 6.29532e-10) (-1.13634e-11 2.30362e-11 1.01654e-09) (-4.13454e-14 2.28835e-11 9.23761e-10) (1.13204e-11 -1.01285e-11 8.36878e-10) (1.13121e-11 -1.23631e-11 8.30494e-10)
3100          (4.59199e-12 1.3658e-10 5.78969e-10) (4.59199e-12 1.3658e-10 5.78969e-10) (-8.31999e-12 8.04242e-11 9.08601e-10) (-1.26069e-12 -6.84348e-11 1.12483e-09) (-7.02369e-12 -6.15939e-11 1.57776e-09) (-7.55207e-11 -8.33053e-11 2.6025e-09) (9.3302e-12 1.15323e-12 1.62441e-09) (-1.14861e-12 -1.28124e-12 2.63725e-09) (-1.36693e-11 -1.12935e-11 2.65497e-09) (-1.13704e-11 -1.02422e-11 2.68631e-09) (1.12575e-11 2.12229e-12 2.8051e-09)
3150          (6.42101e-11 -1.86159e-12 4.83963e-10) (6.42101e-11 -1.86159e-12 4.83963e-10) (6.8032e-11 7.73116e-11 1.44819e-09) (-7.41405e-12 8.79166e-12 1.9533e-09) (7.45562e-11 -7.16343e-11 1.96511e-09) (-7.3021e-11 7.05501e-11 2.40764e-09) (1.35755e-11 -5.64476e-14 1.22406e-09) (2.76394e-14 -9.08592e-14 2.04077e-09) (7.72378e-14 -1.03662e-11 2.03155e-09) (9.28159e-12 2.10024e-12 2.14329e-09) (-1.00217e-11 1.25776e-11 2.27758e-09)
3200          (7.21298e-11 -6.80883e-11 1.57664e-10) (7.21298e-11 -6.80883e-11 1.57664e-10) (7.05682e-11 7.48943e-11 5.22018e-10) (-1.23877e-11 6.05549e-11 7.66338e-10) (4.4848e-12 -8.21997e-11 8.10441e-10) (1.29845e-10 -8.0805e-11 1.22065e-09) (-9.99266e-14 -1.89637e-13 6.3193e-10) (-1.16099e-11 1.19044e-11 9.51718e-10) (1.03312e-11 -1.1547e-11 9.08114e-10) (-1.12272e-11 5.58937e-13 1.01109e-09) (5.69501e-13 1.8751e-13 1.06711e-09)
3250          (6.49783e-12 -1.25026e-11 -1.69303e-10) (6.49783e-12 -1.25026e-11 -1.69303e-10) (8.12586e-11 7.42237e-12 -1.81195e-11) (3.87619e-13 5.22573e-12 -5.51327e-11) (6.70704e-11 -4.19151e-12 -2.007e-10) (-1.44929e-10 -1.37275e-12 8.9424e-10) (-1.95753e-13 1.06581e-12 7.05192e-10) (-1.10908e-11 1.12761e-11 1.13417e-09) (1.24303e-11 3.28641e-12 1.12135e-09) (-1.05777e-12 9.42892e-12 1.08499e-09) (1.37234e-11 9.99804e-12 1.09948e-09)
3300          (-7.44009e-11 -7.49144e-12 1.53945e-10) (-7.44009e-11 -7.49144e-12 1.53945e-10) (6.03069e-11 -1.43501e-10 8.96739e-10) (8.35183e-11 -1.66185e-12 1.78927e-09) (-5.78632e-11 -5.19472e-12 1.94274e-09) (-1.2852e-10 6.22915e-11 3.51908e-09) (1.192e-11 1.29407e-14 2.38039e-09) (5.52774e-13 -1.53454e-12 3.95658e-09) (1.46493e-13 1.14868e-11 3.97308e-09) (-2.03511e-11 2.17798e-11 4.01584e-09) (-1.1578e-11 -1.09779e-11 4.14739e-09)