# Probe 0 (0.0015 0.0015 0)
# Probe 1 (0.0015 0.0015 0.002)
# Probe 2 (0.0015 0.0015 0.004)
# Probe 3 (0.0015 0.0015 0.006)
# Probe 4 (0.0015 0.0015 0.008)
# Probe 5 (0.0015 0.0015 0.01)
# Probe 6 (0.0015 0.0015 0.012)
# Probe 7 (0.0015 0.0015 0.014)
# Probe 8 (0.0015 0.0015 0.016)
# Probe 9 (0.0015 0.0015 0.018)
# Probe 10 (0.0015 0.0015 0.02)
# Time        0             1             2             3             4             5             6             7             8             9             10           
50            116041        71318.4       24425.3       8893.63       3516.29       1913.21       1383.5        1332.87       1667.31       2932.63       6860.8       
100           143860        102615        42302.6       15717.3       5824.49       2729.96       1640.35       1456.24       1807.24       3204.44       7220.35      
150           158923        124219        63288.5       25521.9       9411.16       4035.93       2053.57       1638.27       1978.76       3511.88       7615.16      
200           168139        138004        81769.8       37493.4       14462.8       5966.93       2676          1898.23       2186.84       3846.22       8013.11      
250           174370        147404        95992.9       50092.6       21018.9       8682.04       3580.79       2264.53       2440.73       4203.07       8395.79      
300           178933        154320        106917        61837.5       28811.6       12330.8       4860.97       2774.84       2754.3        4582.52       8756.58      
350           182476        159709        115612        72062.4       37232.9       16980.1       6624.42       3477.33       3146.77       4988.71       9096.08      
400           185339        164073        122742        80804.2       45587.2       22533.2       8979.87       4431.85       3644.7        5430.33       9419.58      
450           187718        167704        128722        88305.8       53410.5       28709         12009.7       5705.41       4281.16       5920.52       9735.47      
500           189735        170786        133829        94810.2       60548.2       35135.5       15737.7       7370.32       5097.72       6477.92       10054.9      
550           191476        173449        138260        100521        67021.6       41496.8       20100.5       9495.06       6144.07       7127.24       10391.3      
600           193003        175785        142165        105599        72908.8       47609.7       24948         12128.5       7475.62       7899.42       10760.7      
650           194360        177863        145651        110167        78294.9       53403.8       30082.8       15282.2       9148.21       8830.88       11181.1      
700           195583        179737        148803        114323        83256.1       58870.8       35319.5       18919.6       11210.1       9961.56       11672.3      
750           196696        181444        151682        118138        87856.6       64029.4       40528.3       22958.9       13690.9       11330.7       12254.3      
800           197720        183014        154335        121669        92149.8       68907.9       45637.9       27288.5       16587.1       12969.5       12945.1      
850           198669        184471        156802        124963        96181         73537.3       50615.6       31787.6       19853         14892.5       13757.5      
900           199556        185832        159110        128055        99985.4       77942         55440.8       36342.1       23401         17087.4       14694.6      
950           200389        187112        161282        130972        103588        82137.3       60093.9       40855.2       27117.6       19512.3       15747.5      
1000          201176        188319        163334        133730        107003        86128.3       64553.4       45249.4       30884.6       22098.8       16894.7      
1050          201919        189461        165273        136339        110237        89912.9       68796.7       49465.4       34597.3       24762.9       18103.8      
1100          202621        190538        167104        138802        113288        93484.3       72803.3       53459.7       38173         27419         19336.8      
1150          203282        191553        168828        141118        116155        96833.5       76554.8       57200.4       41551.4       29990.7       20555.2      
1200          203902        192505        170443        143285        118831        99953.1       80038.6       60667.2       44693.4       32420.1       21725.4      
1250          204480        193392        171947        145299        121312        102837        83247         63848.9       47577.1       34668.9       22822.2      
1300          205015        194214        173338        147159        123597        105484        86178         66743         50194         36716.9       23829.4      
1350          205508        194970        174616        148863        125684        107894        88835.3       69354.3       52546.8       38558.7       24739.8      
1400          205958        195659        175781        150414        127578        110074        91226.3       71692.6       54644.4       40197.4       25551.9      
1450          206366        196285        176835        151816        129284        112031        93364.2       73773.2       56502.4       41645         26269.4      
1500          206733        196848        177784        153074        130812        113778        95264.2       75614.1       58139.1       42915.5       26899.2      
1550          207062        197352        178633        154197        132172        115328        96943.9       77234.7       59573.7       44025.3       27449        
1600          207355        197801        179387        155194        133377        116698        98421.9       78655.3       60826.6       44991.3       27926.9      
1650          207615        198199        180055        156075        134439        117902        99717.3       79896.2       61917.3       45829.7       28341.1      
1700          207844        198549        180642        156849        135370        118956        100849        80976.9       62864.3       46555.7       28699.4      
1750          208044        198856        181157        157527        136185        119877        101834        81915.5       63684.7       47183.1       29008.7      
1800          208220        199124        181607        158118        136895        120677        102689        82728.9       64394.2       47724.6       29275.3      
1850          208372        199358        181999        158633        137512        121373        103431        83432.6       65006.8       48191.4       29504.9      
1900          208505        199562        182339        159080        138047        121975        104072        84040.3       65535.1       48593.4       29702.6      
1950          208621        199738        182635        159467        138510        122496        104625        84564.4       65990         48939.1       29872.5      
2000          208720        199891        182890        159802        138910        122945        105103        85015.8       66381.5       49236.3       30018.4      
2050          208807        200022        183110        160091        139256        123333        105514        85404.3       66718         49491.7       30143.7      
2100          208881        200136        183300        160340        139553        123666        105868        85738.3       67007.1       49710.8       30251.3      
2150          208945        200234        183464        160554        139809        123953        106172        86025.2       67255.4       49898.9       30343.5      
2200          209000        200318        183605        160739        140029        124200        106434        86271.6       67468.5       50060.2       30422.7      
2250          209047        200391        183726        160897        140218        124412        106658        86483.1       67651.3       50198.6       30490.5      
2300          209088        200453        183830        161033        140380        124594        106851        86664.4       67807.9       50317.2       30548.6      
2350          209123        200506        183919        161150        140520        124750        107016        86819.9       67942.2       50418.9       30598.4      
2400          209153        200552        183996        161250        140639        124883        107157        86953         68057.2       50505.7       30641        
2450          209179        200592        184062        161336        140742        124998        107278        87067.2       68155.7       50580.3       30677.5      
2500          209200        200625        184117        161409        140829        125096        107381        87164.3       68239.5       50643.8       30708.5      
2550          209219        200654        184165        161472        140903        125179        107470        87247.3       68311.3       50698         30735.2      
2600          209235        200678        184206        161525        140967        125251        107545        87318.6       68372.8       50744.4       30758        
2650          209249        200699        184241        161571        141022        125312        107610        87379.7       68425.6       50784.3       30777.5      
2700          209261        200717        184271        161610        141068        125364        107665        87431.5       68470.2       50818         30794.1      
2750          209271        200732        184297        161643        141108        125408        107712        87475.4       68508.2       50846.9       30808.2      
2800          209279        200745        184318        161672        141142        125446        107753        87513.5       68541.1       50871.7       30820.4      
2850          209286        200756        184337        161696        141171        125479        107787        87545.8       68568.9       50892.6       30830.6      
2900          209292        200766        184352        161717        141195        125506        107816        87573         68592.4       50910.4       30839.3      
2950          209298        200774        184366        161735        141216        125530        107841        87596.5       68612.8       50926         30847        
3000          209302        200781        184377        161749        141234        125550        107862        87616.4       68629.9       50938.8       30853.3      
3050          209306        200786        184387        161761        141249        125566        107879        87632.5       68643.9       50949.4       30858.4      
3100          209309        200791        184395        161773        141262        125581        107895        87647.3       68656.6       50959.1       30863.2      
3150          209312        200795        184402        161782        141273        125593        107907        87659.4       68667         50967         30867.1      
3200          209314        200799        184408        161789        141282        125603        107919        87669.9       68676.1       50973.9       30870.5      
3250          209316        200802        184413        161796        141290        125612        107928        87679         68684         50979.8       30873.4      
3300          209318        200805        184418        161803        141298        125621        107937        87687.5       68691.4       50985.4       30876.1      
3350          209320        200807        184422        161808        141304        125627        107944        87694         68697         50989.6       30878.2      
3400          209321        200809        184425        161811        141308        125632        107949        87698.6       68701         50992.7       30879.7      
3450          209322        200810        184427        161815        141312        125637        107954        87703.4       68705.1       50995.9       30881.3      
3500          209323        200812        184429        161817        141315        125641        107958        87707.2       68708.4       50998.4       30882.5      
3550          209323        200813        184431        161820        141319        125644        107962        87710.9       68711.6       51000.8       30883.7      
3600          209324        200813        184432        161821        141320        125646        107964        87712.5       68713.1       51001.9       30884.2      
3650          209324        200814        184433        161822        141321        125647        107966        87714.2       68714.6       51003.1       30884.8      
3700          209324        200814        184434        161824        141323        125649        107967        87715.9       68716         51004.2       30885.4      
3750          209325        200815        184435        161825        141324        125651        107969        87717.5       68717.5       51005.4       30886        
3800          209325        200815        184435        161825        141324        125651        107969        87717.5       68717.5       51005.4       30886        
3850          209325        200815        184435        161825        141324        125651        107969        87717.5       68717.5       51005.4       30886        
3900          209325        200815        184435        161825        141324        125651        107969        87717.5       68717.5       51005.4       30886        
3950          209325        200815        184435        161825        141324        125651        107969        87717.5       68717.5       51005.4       30886        
4000          209325        200815        184435        161825        141324        125651        107969        87717.5       68717.5       51005.4       30886        
4050          209325        200815        184435        161825        141324        125651        107969        87717.5       68717.5       51005.4       30886        
4100          209325        200815        184435        161825        141324        125651        107969        87717.5       68717.5       51005.4       30886        
4150          209325        200815        184435        161825        141324        125651        107969        87717.5       68717.5       51005.4       30886        
4200          209325        200815        184435        161825        141324        125651        107969        87717.5       68717.5       51005.4       30886        
4250          209325        200815        184435        161825        141324        125651        107969        87717.5       68717.5       51005.4       30886        
4300          209325        200815        184435        161825        141324        125651        107969        87717.5       68717.5       51005.4       30886        
4350          209325        200815        184435        161825        141324        125651        107969        87717.5       68717.5       51005.4       30886        
4400          209325        200815        184435        161825        141324        125651        107969        87717.5       68717.5       51005.4       30886        
4450          209325        200815        184435        161825        141324        125651        107969        87717.5       68717.5       51005.4       30886        
4500          209325        200815        184435        161825        141324        125651        107969        87717.5       68717.5       51005.4       30886        
4550          209325        200815        184435        161825        141324        125651        107969        87717.5       68717.5       51005.4       30886        
4600          209325        200815        184435        161825        141324        125651        107969        87717.5       68717.5       51005.4       30886        
4650          209325        200815        184435        161825        141324        125651        107969        87717.5       68717.5       51005.4       30886        
4700          209325        200815        184435        161825        141324        125651        107969        87717.5       68717.5       51005.4       30886        
4750          209325        200815        184435        161825        141324        125651        107969        87717.5       68717.5       51005.4       30886        
4800          209325        200815        184435        161825        141324        125651        107969        87717.5       68717.5       51005.4       30886        
4850          209325        200815        184435        161825        141324        125651        107969        87717.5       68717.5       51005.4       30886        
4900          209325        200815        184435        161825        141324        125651        107969        87717.5       68717.5       51005.4       30886        
4950          209325        200815        184435        161825        141324        125651        107969        87717.5       68717.5       51005.4       30886        
5000          209325        200815        184435        161825        141324        125651        107969        87717.5       68717.5       51005.4       30886        
