# Probe 0 (0.0015 0.0015 0)
# Probe 1 (0.0015 0.0015 0.002)
# Probe 2 (0.0015 0.0015 0.004)
# Probe 3 (0.0015 0.0015 0.006)
# Probe 4 (0.0015 0.0015 0.008)
# Probe 5 (0.0015 0.0015 0.01)
# Probe 6 (0.0015 0.0015 0.012)
# Probe 7 (0.0015 0.0015 0.014)
# Probe 8 (0.0015 0.0015 0.016)
# Probe 9 (0.0015 0.0015 0.018)
# Probe 10 (0.0015 0.0015 0.02)
# Time        0             1             2             3             4             5             6             7             8             9             10           
50            (868264 40297.8 -5.29307e+07) (-890457 127416 -3.69753e+07) (-68736.8 -146177 -1.36603e+07) (-4219.41 76412.8 -4.69531e+06) (-28920.2 4736.87 -1.42918e+06) (3946.18 1529.81 -479403) (1605.21 -2355.49 -136505) (1822.2 -8673.15 70262.7) (4230.86 -2087.7 330088) (-8393.77 -19506.6 1.18096e+06) (28615.1 6742.37 3.26902e+06)
100           (2.35565e+06 93258.9 -4.3515e+07) (100304 295184 -3.80323e+07) (-190483 -189256 -2.0893e+07) (4662.82 93458.5 -8.35235e+06) (-55228.3 4904.76 -2.68937e+06) (2724.43 -944.559 -954867) (-2381.81 -2959.17 -281733) (1262.02 -8131.15 46359.5) (4192.26 -2762.58 365297) (-10371.9 -15113.2 1.26059e+06) (34761.3 16558.9 3.1742e+06)
150           (2.74937e+06 134835 -3.60879e+07) (977529 350817 -3.38903e+07) (-369365 -388827 -2.51773e+07) (37195.1 6185.22 -1.27605e+07) (-90473.8 8200.97 -4.56093e+06) (1245.24 -4337.39 -1.69733e+06) (-8654.36 -4093.9 -519486) (441.254 -7245.27 -4322.28) (4046.36 -3416 395936) (-12347.7 -10193 1.34476e+06) (40297.2 26866.3 3.06723e+06)
200           (2.91496e+06 153289 -3.12599e+07) (1.37612e+06 360982 -3.00806e+07) (-397777 -635029 -2.58279e+07) (119711 -236144 -1.65014e+07) (-123716 24746.3 -6.98285e+06) (143.001 -7805.56 -2.75264e+06) (-17726.7 -6101.44 -877521) (-681.917 -5956.21 -92136.5) (3781.12 -3984.24 416079) (-14178.5 -4771.21 1.42336e+06) (43867.9 35230.9 2.9517e+06)
250           (3.01329e+06 163549 -2.79561e+07) (1.61236e+06 362068 -2.72302e+07) (-362177 -765581 -2.48784e+07) (199704 -554955 -1.85369e+07) (-135868 70272.8 -9.68409e+06) (812.204 -8589.76 -4.14246e+06) (-30106.3 -9570.05 -1.39008e+06) (-2162.42 -4203.3 -231184) (3359.52 -4402.75 418636) (-15779.7 1102.9 1.48827e+06) (45272.2 40510.5 2.83028e+06)
300           (3.08026e+06 170615 -2.55201e+07) (1.77714e+06 361906 -2.50545e+07) (-351886 -835925 -2.35989e+07) (229758 -830316 -1.90198e+07) (-119570 149508 -1.21635e+07) (5874.89 20.5074 -5.82153e+06) (-46034 -15497.8 -2.09438e+06) (-4031.68 -1957.57 -439114) (2743.71 -4594.64 395327) (-17123.7 7338.88 1.53324e+06) (45008.2 43075.1 2.70446e+06)
350           (3.12989e+06 175857 -2.36196e+07) (1.90157e+06 361152 -2.33252e+07) (-355848 -882244 -2.23749e+07) (240153 -1.04164e+06 -1.86647e+07) (-88760.5 244913 -1.3969e+07) (19438.2 28519 -7.63095e+06) (-64895.8 -25482 -3.0185e+06) (-6243.48 673.312 -736382) (1903.11 -4473.33 336247) (-18263 13836.5 1.55276e+06) (43738.6 43921.4 2.57442e+06)
400           (3.16866e+06 180020 -2.2079e+07) (2.00031e+06 360238 -2.19077e+07) (-362584 -916349 -2.12845e+07) (247399 -1.21124e+06 -1.80026e+07) (-57297.2 331459 -1.50123e+07) (46321.1 80786.9 -9.31401e+06) (-84530.3 -41549.4 -4.16207e+06) (-8559.12 3358.42 -1.14367e+06) (826.955 -3929.06 229427) (-19271.7 20449.5 1.54107e+06) (41967.9 43893.1 2.43893e+06)
450           (3.20019e+06 183415 -2.07966e+07) (2.08147e+06 359281 -2.07191e+07) (-369270 -943156 -2.03269e+07) (252879 -1.35236e+06 -1.72727e+07) (-27154 400496 -1.54848e+07) (89813.4 142809 -1.06294e+07) (-100468 -64837 -5.47712e+06) (-10379.2 5337.83 -1.67726e+06) (-402.091 -2831.73 61738.4) (-20272.8 27082.8 1.4919e+06) (40033.9 43526 2.29538e+06)
500           (3.22651e+06 186253 -1.97074e+07) (2.14977e+06 358344 -1.97043e+07) (-375415 -964989 -1.94833e+07) (256816 -1.47189e+06 -1.65554e+07) (2182.45 455382 -1.56156e+07) (146864 193518 -1.14741e+07) (-106035 -92985.5 -6.85832e+06) (-10514.2 5427.18 -2.34281e+06) (-1558.65 -996.953 -180932) (-21379.9 33689 1.39777e+06) (38098.4 43044.8 2.13958e+06)
550           (3.24892e+06 188674 -1.87663e+07) (2.20834e+06 357445 -1.88235e+07) (-380994 -983225 -1.87336e+07) (259610 -1.57491e+06 -1.58737e+07) (29947.5 500980 -1.55613e+07) (208280 227225 -1.18947e+07) (-94318.8 -120056 -8.16426e+06) (-7064.35 2152.1 -3.12688e+06) (-2185.56 1852.91 -512010) (-22704.8 40317.2 1.24983e+06) (36206.9 42492.7 1.96566e+06)
600           (3.26833e+06 190776 -1.79403e+07) (2.25941e+06 356590 -1.80475e+07) (-386069 -998782 -1.80604e+07) (261591 -1.66522e+06 -1.52325e+07) (55569.5 540333 -1.54096e+07) (265628 252044 -1.20103e+07) (-62522.3 -141196 -9.27045e+06) (2201.18 -5893.75 -3.98981e+06) (-1502.14 6157.98 -940995) (-24371.7 47153.5 1.03817e+06) (34333.2 41831 1.76605e+06)
650           (3.28541e+06 192629 -1.72049e+07) (2.30462e+06 355777 -1.73544e+07) (-390710 -1.0123e+06 -1.74496e+07) (262996 -1.7456e+06 -1.46307e+07) (79063 575136 -1.52061e+07) (315609 274950 -1.19361e+07) (-15418.5 -156297 -1.0116e+07) (18621.6 -19774.8 -4.86632e+06) (1611.68 12593.3 -1.46935e+06) (-26540.7 54549.1 752681) (32410.5 41002.2 1.53162e+06)
700           (3.30065e+06 194285 -1.6542e+07) (2.34519e+06 355005 -1.67279e+07) (-394982 -1.02425e+06 -1.68904e+07) (263992 -1.81809e+06 -1.40654e+07) (100686 606415 -1.49755e+07) (358676 297743 -1.17524e+07) (37510.9 -168102 -1.07073e+07) (41142.1 -40551.8 -5.67965e+06) (8459.96 22049.2 -2.08685e+06) (-29434.5 63028.7 384585) (30352.8 39966 1.2521e+06)
750           (3.31442e+06 195784 -1.59379e+07) (2.38201e+06 354271 -1.61556e+07) (-398940 -1.03496e+06 -1.63741e+07) (264696 -1.88419e+06 -1.3533e+07) (120721 634867 -1.47312e+07) (396350 320060 -1.15058e+07) (88523.8 -178808 -1.10895e+07) (66334.1 -69534.1 -6.36573e+06) (20142 35417.5 -2.76966e+06) (-33359.6 73272.9 -71094.8) (28068.9 38723.8 916984)
800           (3.32696e+06 197158 -1.53822e+07) (2.41572e+06 353578 -1.56281e+07) (-402598 -1.04464e+06 -1.5894e+07) (265232 -1.94487e+06 -1.303e+07) (139376 660888 -1.44804e+07) (429919 341422 -1.12222e+07) (134366 -189202 -1.13157e+07) (90667.5 -107088 -6.8928e+06) (36895.5 53155.1 -3.48166e+06) (-38683.1 85995.4 -612238) (25452.7 37306.7 517166)
850           (3.33856e+06 198423 -1.48665e+07) (2.44695e+06 352909 -1.51377e+07) (-406062 -1.05353e+06 -1.54444e+07) (265558 -2.00137e+06 -1.25528e+07) (156928 685116 -1.42283e+07) (460464 361735 -1.09166e+07) (175302 -199289 -1.14332e+07) (112673 -151796 -7.26469e+06) (57958.2 75126 -4.18046e+06) (-45832 102031 -1.22655e+06) (22482.8 35895.5 46836.6)
900           (3.34933e+06 199598 -1.43846e+07) (2.47607e+06 352268 -1.46788e+07) (-409329 -1.06177e+06 -1.50209e+07) (265769 -2.05422e+06 -1.20987e+07) (173497 707743 -1.39776e+07) (488630 381006 -1.05997e+07) (212398 -208962 -1.14788e+07) (132531 -200529 -7.50927e+06) (81386.6 100262 -4.82821e+06) (-55043.4 121809 -1.89149e+06) (19113.8 34650 -493728)
950           (3.35942e+06 200700 -1.39315e+07) (2.50339e+06 351655 -1.42468e+07) (-412420 -1.06944e+06 -1.46205e+07) (265902 -2.10392e+06 -1.1666e+07) (189195 729008 -1.37315e+07) (514900 399308 -1.02807e+07) (246686 -218142 -1.14803e+07) (150852 -250304 -7.66253e+06) (105270 127049 -5.40124e+06) (-66243.5 145329 -2.57776e+06) (15361.2 33763.3 -1.09708e+06)
1000          (3.36891e+06 201737 -1.35039e+07) (2.52914e+06 351069 -1.38389e+07) (-415350 -1.07665e+06 -1.42412e+07) (265988 -2.15085e+06 -1.12543e+07) (204082 749074 -1.34931e+07) (539578 416693 -9.96728e+06) (278758 -226812 -1.1458e+07) (167982 -299060 -7.75695e+06) (128423 153969 -5.89355e+06) (-78969.7 172007 -3.25575e+06) (11283.8 33380.8 -1.74862e+06)
1050          (3.37788e+06 202716 -1.30998e+07) (2.55347e+06 350514 -1.34533e+07) (-418126 -1.08345e+06 -1.38822e+07) (266056 -2.19521e+06 -1.08639e+07) (218180 768037 -1.32654e+07) (562828 433176 -9.66603e+06) (308862 -234989 -1.14254e+07) (184023 -345634 -7.81682e+06) (150388 179870 -6.31263e+06) (-92501 200778 -3.90176e+06) (6974.21 33551.5 -2.42839e+06)
1100          (3.38635e+06 203640 -1.27182e+07) (2.57645e+06 349990 -1.30892e+07) (-420746 -1.08987e+06 -1.35434e+07) (266135 -2.23711e+06 -1.04957e+07) (231480 785937 -1.30509e+07) (584733 448756 -9.38157e+06) (337071 -242697 -1.13914e+07) (199008 -389428 -7.85843e+06) (171057 204083 -6.6721e+06) (-106104 230374 -4.50128e+06) (2544.54 34216.5 -3.11431e+06)
1150          (3.39434e+06 204514 -1.23588e+07) (2.59811e+06 349502 -1.27465e+07) (-423212 -1.09594e+06 -1.32252e+07) (266219 -2.27653e+06 -1.01507e+07) (243966 802786 -1.28514e+07) (605277 463389 -9.11758e+06) (363360 -249925 -1.13611e+07) (212908 -430138 -7.89199e+06) (190352 226334 -6.9857e+06) (-119184 259593 -5.048e+06) (-1885.86 35236.9 -3.78528e+06)
1200          (3.40186e+06 205335 -1.20218e+07) (2.61844e+06 349051 -1.24254e+07) (-425518 -1.10165e+06 -1.2928e+07) (266325 -2.31347e+06 -9.8298e+06) (255612 818568 -1.26681e+07) (624461 477054 -8.87598e+06) (387709 -256680 -1.13377e+07) (225744 -467612 -7.92351e+06) (208207 246575 -7.2642e+06) (-131391 287510 -5.54181e+06) (-6202.35 36448.3 -4.42408e+06)
1250          (3.4089e+06 206104 -1.17077e+07) (2.63743e+06 348638 -1.21264e+07) (-427659 -1.10701e+06 -1.26523e+07) (266456 -2.34787e+06 -9.53361e+06) (266398 833262 -1.25016e+07) (642264 489727 -8.65761e+06) (410105 -262956 -1.13221e+07) (237523 -501800 -7.95613e+06) (224557 264866 -7.51501e+06) (-142551 313508 -5.98548e+06) (-10305.8 37705 -5.01856e+06)
1300          (3.41545e+06 206818 -1.14168e+07) (2.65505e+06 348262 -1.18498e+07) (-429634 -1.11201e+06 -1.23984e+07) (266610 -2.37969e+06 -9.26237e+06) (276315 846849 -1.23518e+07) (658672 501393 -8.46237e+06) (430553 -268748 -1.13143e+07) (248261 -532729 -7.99104e+06) (239377 281301 -7.74265e+06) (-152608 337250 -6.38276e+06) (-14120.3 38905.5 -5.56167e+06)
1350          (3.42152e+06 207487 -1.11494e+07) (2.67131e+06 347939 -1.1596e+07) (-431453 -1.11663e+06 -1.21663e+07) (266738 -2.40896e+06 -9.0158e+06) (285387 859377 -1.22183e+07) (673723 512102 -8.28907e+06) (449097 -274017 -1.13136e+07) (257953 -560514 -8.02805e+06) (252736 296050 -7.94979e+06) (-161586 358664 -6.7374e+06) (-17593.5 40026 -6.05082e+06)
1400          (3.42707e+06 208090 -1.09053e+07) (2.68614e+06 347634 -1.13644e+07) (-433095 -1.12088e+06 -1.19557e+07) (266927 -2.43559e+06 -8.79344e+06) (293582 870735 -1.21002e+07) (687354 521764 -8.13708e+06) (465781 -278846 -1.13186e+07) (266701 -585264 -8.06674e+06) (264596 309101 -8.1379e+06) (-169524 377658 -7.05292e+06) (-20714.8 40980.9 -6.48627e+06)
1450          (3.43214e+06 208607 -1.06841e+07) (2.69964e+06 347335 -1.11549e+07) (-434588 -1.1248e+06 -1.17657e+07) (267139 -2.45983e+06 -8.59424e+06) (300963 881046 -1.19964e+07) (699666 530436 -8.00415e+06) (480796 -283259 -1.13279e+07) (274561 -607333 -8.10608e+06) (275135 320638 -8.30794e+06) (-176535 394478 -7.33268e+06) (-23431.5 41849.7 -6.8708e+06)
1500          (3.4367e+06 209105 -1.04848e+07) (2.71179e+06 347099 -1.09664e+07) (-435915 -1.12831e+06 -1.15957e+07) (267335 -2.4815e+06 -8.4168e+06) (307553 890278 -1.19057e+07) (710680 538228 -7.88887e+06) (494052 -287170 -1.13404e+07) (281502 -626642 -8.14489e+06) (284371 330800 -8.46105e+06) (-182643 409142 -7.57955e+06) (-25867.5 42546.6 -7.2081e+06)
1550          (3.44081e+06 209553 -1.03064e+07) (2.72269e+06 346893 -1.07978e+07) (-437099 -1.13147e+06 -1.14443e+07) (267528 -2.50087e+06 -8.25966e+06) (313412 898530 -1.18268e+07) (720492 545164 -7.78934e+06) (505768 -290655 -1.13549e+07) (287634 -643577 -8.18239e+06) (292463 339710 -8.59801e+06) (-187964 421922 -7.79659e+06) (-27991.9 43139.7 -7.5025e+06)
1600          (3.44448e+06 209953 -1.01476e+07) (2.73241e+06 346713 -1.06478e+07) (-438149 -1.13429e+06 -1.13102e+07) (267714 -2.51809e+06 -8.12118e+06) (318594 905862 -1.17586e+07) (729184 551303 -7.7036e+06) (516076 -293746 -1.13704e+07) (293027 -658375 -8.21792e+06) (299525 347494 -8.71981e+06) (-192586 433019 -7.98672e+06) (-29835.9 43643.3 -7.75853e+06)
1650          (3.44774e+06 210308 -1.0007e+07) (2.74103e+06 346556 -1.05153e+07) (-439076 -1.1368e+06 -1.1192e+07) (267889 -2.53332e+06 -7.99967e+06) (323154 912342 -1.16996e+07) (736847 556712 -7.62988e+06) (525110 -296473 -1.1386e+07) (297752 -671263 -8.25099e+06) (305670 354273 -8.82756e+06) (-196591 442630 -8.15273e+06) (-31431.2 44070.7 -7.98055e+06)
1700          (3.45061e+06 210627 -9.88316e+06) (2.74862e+06 346424 -1.03986e+07) (-439889 -1.13901e+06 -1.10883e+07) (268047 -2.5467e+06 -7.89345e+06) (327147 918034 -1.16487e+07) (743562 561462 -7.56654e+06) (532976 -298858 -1.14013e+07) (301870 -682418 -8.28135e+06) (310990 360159 -8.92241e+06) (-200050 450913 -8.29729e+06) (-32813.9 44424 -8.17267e+06)
1750          (3.45315e+06 210903 -9.77452e+06) (2.75529e+06 346306 -1.02963e+07) (-440601 -1.14097e+06 -1.09976e+07) (268197 -2.55845e+06 -7.80088e+06) (330639 923031 -1.16049e+07) (749446 565608 -7.51225e+06) (539848 -300956 -1.14158e+07) (305461 -692127 -8.30887e+06) (315610 365262 -9.00557e+06) (-203041 458084 -8.42283e+06) (-33999.6 44733.9 -8.33861e+06)
1800          (3.45538e+06 211167 -9.67961e+06) (2.76112e+06 346217 -1.02069e+07) (-441206 -1.14268e+06 -1.09185e+07) (268357 -2.56865e+06 -7.72053e+06) (333657 927334 -1.15672e+07) (754547 569195 -7.46568e+06) (545787 -302806 -1.14291e+07) (308571 -700505 -8.33366e+06) (319566 369637 -9.07816e+06) (-205607 464214 -8.53171e+06) (-35052.5 44958.3 -8.48174e+06)
1850          (3.45731e+06 211373 -9.59688e+06) (2.76622e+06 346127 -1.01291e+07) (-441748 -1.14418e+06 -1.08498e+07) (268476 -2.57759e+06 -7.65076e+06) (336302 931139 -1.15348e+07) (759008 572337 -7.42578e+06) (550962 -304396 -1.14413e+07) (311273 -707764 -8.35562e+06) (323018 373456 -9.14141e+06) (-207830 469542 -8.62582e+06) (-35925 45188.5 -8.60508e+06)
1900          (3.459e+06 211553 -9.52497e+06) (2.77065e+06 346049 -1.00615e+07) (-442219 -1.14549e+06 -1.07903e+07) (268581 -2.58537e+06 -7.5904e+06) (338595 934443 -1.15071e+07) (762878 575062 -7.39162e+06) (555437 -305775 -1.14525e+07) (313610 -714023 -8.37505e+06) (325994 376749 -9.19633e+06) (-209743 474125 -8.70708e+06) (-36675.3 45384.8 -8.71122e+06)
1950          (3.46046e+06 211710 -9.46262e+06) (2.77449e+06 345983 -1.00029e+07) (-442627 -1.14662e+06 -1.07387e+07) (268675 -2.5921e+06 -7.53826e+06) (340577 937306 -1.14833e+07) (766226 577420 -7.36237e+06) (559300 -306968 -1.14624e+07) (315627 -719415 -8.39214e+06) (328557 379587 -9.24391e+06) (-211388 478063 -8.77716e+06) (-37319.5 45552.4 -8.8025e+06)
2000          (3.46173e+06 211845 -9.40866e+06) (2.77782e+06 345926 -9.95221e+06) (-442979 -1.1476e+06 -1.06942e+07) (268757 -2.59793e+06 -7.49328e+06) (342290 939782 -1.14628e+07) (769120 579457 -7.33734e+06) (562632 -308000 -1.14712e+07) (317366 -724054 -8.4071e+06) (330762 382028 -9.28505e+06) (-212802 481445 -8.83752e+06) (-37872.4 45695.5 -8.88094e+06)
2050          (3.46283e+06 211962 -9.36206e+06) (2.78069e+06 345876 -9.90843e+06) (-443284 -1.14845e+06 -1.06557e+07) (268829 -2.60296e+06 -7.45453e+06) (343766 941920 -1.14453e+07) (771616 581214 -7.31591e+06) (565501 -308890 -1.1479e+07) (318864 -728044 -8.42015e+06) (332657 384128 -9.32057e+06) (-214015 484349 -8.88946e+06) (-38346.8 45817.7 -8.9483e+06)
2100          (3.46378e+06 212063 -9.32186e+06) (2.78317e+06 345834 -9.87069e+06) (-443546 -1.14919e+06 -1.06226e+07) (268892 -2.6073e+06 -7.42119e+06) (345038 943763 -1.14304e+07) (773766 582728 -7.29757e+06) (567969 -309657 -1.14859e+07) (320153 -731471 -8.43149e+06) (334285 385932 -9.35119e+06) (-215057 486840 -8.93412e+06) (-38753.6 45922.1 -9.00612e+06)
2150          (3.46459e+06 212150 -9.28722e+06) (2.78531e+06 345798 -9.83817e+06) (-443772 -1.14982e+06 -1.05941e+07) (268946 -2.61103e+06 -7.39251e+06) (346132 945350 -1.14175e+07) (775617 584031 -7.28187e+06) (570091 -310317 -1.14918e+07) (321260 -734415 -8.44133e+06) (335682 387481 -9.37756e+06) (-215950 488977 -8.97249e+06) (-39102.4 46011.3 -9.05573e+06)
2200          (3.4653e+06 212225 -9.25742e+06) (2.78715e+06 345767 -9.8102e+06) (-443966 -1.15037e+06 -1.05696e+07) (268994 -2.61425e+06 -7.36788e+06) (347073 946716 -1.14065e+07) (777209 585151 -7.26843e+06) (571914 -310885 -1.1497e+07) (322212 -736940 -8.44985e+06) (336881 388811 -9.40023e+06) (-216716 490810 -9.00543e+06) (-39401.4 46087.6 -9.09827e+06)
2250          (3.46587e+06 212319 -9.23181e+06) (2.7887e+06 345761 -9.78615e+06) (-444136 -1.15078e+06 -1.05486e+07) (268989 -2.61688e+06 -7.34675e+06) (347868 947877 -1.13971e+07) (778523 586143 -7.25682e+06) (573364 -311301 -1.15015e+07) (322975 -738924 -8.4572e+06) (337853 389952 -9.4197e+06) (-217357 492279 -9.03374e+06) (-39677.4 46120.8 -9.13475e+06)
2300          (3.4664e+06 212370 -9.20981e+06) (2.79006e+06 345735 -9.76551e+06) (-444279 -1.15119e+06 -1.05305e+07) (269031 -2.61927e+06 -7.32861e+06) (348563 948886 -1.1389e+07) (779704 586965 -7.24699e+06) (574723 -311730 -1.15054e+07) (323683 -740808 -8.46353e+06) (338743 390930 -9.43643e+06) (-217922 493639 -9.05798e+06) (-39894.1 46181.2 -9.166e+06)
2350          (3.46687e+06 212388 -9.19093e+06) (2.79127e+06 345699 -9.74779e+06) (-444402 -1.15159e+06 -1.05151e+07) (269101 -2.62145e+06 -7.31295e+06) (349173 949770 -1.13822e+07) (780792 587679 -7.23849e+06) (575991 -312148 -1.15089e+07) (324352 -742550 -8.46888e+06) (339573 391799 -9.45083e+06) (-218416 494913 -9.07866e+06) (-40062 46267.6 -9.19282e+06)
2400          (3.46723e+06 212449 -9.17471e+06) (2.79224e+06 345692 -9.73257e+06) (-444503 -1.15185e+06 -1.05017e+07) (269109 -2.62309e+06 -7.2997e+06) (349667 950487 -1.13762e+07) (781588 588269 -7.23138e+06) (576894 -312425 -1.15117e+07) (324823 -743812 -8.47366e+06) (340157 392480 -9.46312e+06) (-218820 495805 -9.09655e+06) (-40239.4 46274.5 -9.21572e+06)
2450          (3.46758e+06 212470 -9.16081e+06) (2.79313e+06 345670 -9.71951e+06) (-444598 -1.15214e+06 -1.04904e+07) (269147 -2.62466e+06 -7.28819e+06) (350115 951137 -1.13712e+07) (782375 588797 -7.22515e+06) (577801 -312715 -1.15143e+07) (325296 -745063 -8.47761e+06) (340757 393116 -9.47371e+06) (-219182 496716 -9.11174e+06) (-40365.8 46332.9 -9.23538e+06)
2500          (3.46786e+06 212496 -9.14895e+06) (2.79387e+06 345658 -9.70831e+06) (-444680 -1.15237e+06 -1.04808e+07) (269171 -2.62596e+06 -7.27841e+06) (350485 951686 -1.13669e+07) (783001 589232 -7.21987e+06) (578525 -312946 -1.15165e+07) (325675 -746082 -8.481e+06) (341232 393633 -9.48274e+06) (-219485 497448 -9.12468e+06) (-40479.7 46367.3 -9.25215e+06)
2550          (3.4681e+06 212521 -9.13889e+06) (2.79449e+06 345646 -9.69891e+06) (-444744 -1.15255e+06 -1.04724e+07) (269190 -2.62705e+06 -7.27018e+06) (350813 952147 -1.13631e+07) (783543 589611 -7.21545e+06) (579143 -313142 -1.15183e+07) (325996 -746932 -8.48398e+06) (341641 394088 -9.49032e+06) (-219743 498064 -9.13585e+06) (-40574.2 46397 -9.2664e+06)
2600          (3.4683e+06 212541 -9.13023e+06) (2.79502e+06 345634 -9.69081e+06) (-444798 -1.1527e+06 -1.04653e+07) (269201 -2.62798e+06 -7.26306e+06) (351086 952545 -1.136e+07) (784002 589934 -7.21162e+06) (579671 -313306 -1.15198e+07) (326268 -747662 -8.48653e+06) (341985 394471 -9.49691e+06) (-219964 498588 -9.14539e+06) (-40660.3 46417.5 -9.27865e+06)
2650          (3.4685e+06 212588 -9.12278e+06) (2.79548e+06 345636 -9.68384e+06) (-444852 -1.15285e+06 -1.04592e+07) (269211 -2.62877e+06 -7.25696e+06) (351317 952877 -1.13573e+07) (784387 590204 -7.2083e+06) (580118 -313445 -1.15211e+07) (326527 -748243 -8.4887e+06) (342257 394776 -9.50257e+06) (-220174 499001 -9.15359e+06) (-40728.3 46429.3 -9.28916e+06)
2700          (3.46863e+06 212583 -9.11656e+06) (2.79586e+06 345619 -9.67803e+06) (-444887 -1.15295e+06 -1.0454e+07) (269214 -2.62945e+06 -7.25175e+06) (351518 953184 -1.1355e+07) (784727 590438 -7.20553e+06) (580521 -313557 -1.15221e+07) (326696 -748824 -8.49051e+06) (342517 395060 -9.50739e+06) (-220325 499410 -9.16049e+06) (-40799.1 46448.3 -9.29807e+06)
2750          (3.46876e+06 212598 -9.11111e+06) (2.7962e+06 345619 -9.67289e+06) (-444920 -1.15305e+06 -1.04496e+07) (269222 -2.63003e+06 -7.2474e+06) (351678 953412 -1.1353e+07) (785007 590639 -7.20315e+06) (580828 -313668 -1.15232e+07) (326868 -749263 -8.49207e+06) (342743 395313 -9.51139e+06) (-220451 499739 -9.16638e+06) (-40848.2 46463.7 -9.30565e+06)
2800          (3.46887e+06 212632 -9.10651e+06) (2.79647e+06 345627 -9.66859e+06) (-444950 -1.15311e+06 -1.04458e+07) (269217 -2.63047e+06 -7.24357e+06) (351822 953626 -1.13513e+07) (785231 590820 -7.20107e+06) (581066 -313727 -1.1524e+07) (326997 -749574 -8.49342e+06) (342887 395498 -9.51493e+06) (-220573 499967 -9.17148e+06) (-40907.7 46456.3 -9.3122e+06)
2850          (3.46895e+06 212607 -9.10266e+06) (2.79672e+06 345598 -9.66499e+06) (-444979 -1.15321e+06 -1.04426e+07) (269244 -2.63095e+06 -7.24027e+06) (351953 953813 -1.13499e+07) (785477 590972 -7.1993e+06) (581365 -313820 -1.15247e+07) (327141 -749988 -8.49455e+06) (343077 395685 -9.51797e+06) (-220670 500263 -9.17577e+06) (-40936.3 46483.8 -9.31773e+06)
2900          (3.46905e+06 212640 -9.09929e+06) (2.79693e+06 345608 -9.66182e+06) (-445004 -1.15327e+06 -1.04398e+07) (269239 -2.63131e+06 -7.23759e+06) (352060 953970 -1.13487e+07) (785640 591086 -7.19788e+06) (581556 -313878 -1.15253e+07) (327241 -750256 -8.49554e+06) (343199 395818 -9.52048e+06) (-220771 500442 -9.17943e+06) (-40967.9 46490.2 -9.32241e+06)
2950          (3.46911e+06 212639 -9.09635e+06) (2.79712e+06 345609 -9.65905e+06) (-445013 -1.15332e+06 -1.04375e+07) (269249 -2.63162e+06 -7.23525e+06) (352134 954077 -1.13477e+07) (785805 591200 -7.19656e+06) (581730 -313952 -1.15259e+07) (327347 -750496 -8.49632e+06) (343338 395974 -9.52257e+06) (-220822 500644 -9.18257e+06) (-40999 46499.2 -9.32651e+06)
3000          (3.46915e+06 212658 -9.09401e+06) (2.79723e+06 345613 -9.65685e+06) (-445020 -1.15333e+06 -1.04355e+07) (269251 -2.63177e+06 -7.23328e+06) (352207 954167 -1.13467e+07) (785890 591288 -7.19554e+06) (581810 -313963 -1.15262e+07) (327384 -750604 -8.49708e+06) (343370 396045 -9.52446e+06) (-220874 500706 -9.18523e+06) (-41054.1 46465.3 -9.3299e+06)
3050          (3.46921e+06 212643 -9.09207e+06) (2.79737e+06 345594 -9.65503e+06) (-445047 -1.15341e+06 -1.04339e+07) (269256 -2.63209e+06 -7.23163e+06) (352284 954292 -1.1346e+07) (786026 591355 -7.19467e+06) (582001 -314023 -1.15266e+07) (327474 -750871 -8.4976e+06) (343494 396150 -9.52598e+06) (-220937 500900 -9.18734e+06) (-41044.5 46505.7 -9.33271e+06)
3100          (3.46925e+06 212645 -9.09026e+06) (2.79749e+06 345593 -9.65334e+06) (-445052 -1.15344e+06 -1.04324e+07) (269268 -2.63228e+06 -7.23015e+06) (352340 954372 -1.13454e+07) (786133 591425 -7.19384e+06) (582117 -314066 -1.15269e+07) (327535 -751037 -8.49812e+06) (343574 396232 -9.52731e+06) (-220986 501017 -9.18934e+06) (-41063.9 46512 -9.33524e+06)
3150          (3.46929e+06 212649 -9.08881e+06) (2.79758e+06 345593 -9.65198e+06) (-445065 -1.15346e+06 -1.04312e+07) (269263 -2.63245e+06 -7.22893e+06) (352387 954444 -1.13449e+07) (786215 591489 -7.19315e+06) (582204 -314088 -1.15272e+07) (327583 -751152 -8.49852e+06) (343638 396306 -9.52842e+06) (-221023 501111 -9.19095e+06) (-41075.5 46520.1 -9.33732e+06)
3200          (3.46931e+06 212648 -9.08752e+06) (2.79765e+06 345587 -9.65077e+06) (-445074 -1.15348e+06 -1.04302e+07) (269266 -2.63258e+06 -7.22788e+06) (352424 954497 -1.13444e+07) (786276 591532 -7.19259e+06) (582281 -314113 -1.15274e+07) (327627 -751251 -8.49889e+06) (343684 396361 -9.5294e+06) (-221052 501185 -9.19234e+06) (-41084.7 46522.2 -9.33915e+06)
3250          (3.46935e+06 212666 -9.08641e+06) (2.79773e+06 345595 -9.64972e+06) (-445077 -1.1535e+06 -1.04293e+07) (269274 -2.63268e+06 -7.22699e+06) (352462 954549 -1.13439e+07) (786328 591563 -7.19215e+06) (582342 -314136 -1.15276e+07) (327657 -751345 -8.49923e+06) (343712 396388 -9.53027e+06) (-221090 501236 -9.19356e+06) (-41104 46516.5 -9.34073e+06)
3300          (3.46938e+06 212682 -9.08536e+06) (2.7978e+06 345599 -9.64874e+06) (-445093 -1.15353e+06 -1.04284e+07) (269260 -2.63281e+06 -7.22614e+06) (352495 954597 -1.13436e+07) (786380 591603 -7.19171e+06) (582408 -314147 -1.15278e+07) (327688 -751425 -8.49952e+06) (343754 396439 -9.53108e+06) (-221117 501297 -9.19466e+06) (-41113 46519.9 -9.34221e+06)
3350          (3.46939e+06 212664 -9.08459e+06) (2.79785e+06 345591 -9.64803e+06) (-445092 -1.15354e+06 -1.04278e+07) (269270 -2.6329e+06 -7.22546e+06) (352517 954634 -1.13434e+07) (786443 591645 -7.19126e+06) (582467 -314170 -1.15279e+07) (327718 -751516 -8.49974e+06) (343809 396491 -9.53159e+06) (-221134 501368 -9.19561e+06) (-41117.3 46531.4 -9.34328e+06)
3400          (3.46939e+06 212657 -9.08405e+06) (2.79788e+06 345592 -9.64749e+06) (-445081 -1.15353e+06 -1.04273e+07) (269292 -2.63294e+06 -7.225e+06) (352547 954663 -1.13431e+07) (786483 591675 -7.19099e+06) (582486 -314179 -1.1528e+07) (327722 -751549 -8.49988e+06) (343819 396508 -9.53207e+06) (-221144 501391 -9.19614e+06) (-41152.4 46512.8 -9.34415e+06)
3450          (3.46941e+06 212661 -9.08348e+06) (2.79792e+06 345587 -9.64697e+06) (-445098 -1.15356e+06 -1.04269e+07) (269282 -2.63303e+06 -7.22451e+06) (352560 954684 -1.13429e+07) (786511 591690 -7.19074e+06) (582531 -314194 -1.15281e+07) (327752 -751603 -8.50004e+06) (343850 396541 -9.53247e+06) (-221158 501422 -9.19682e+06) (-41148.5 46518.7 -9.34494e+06)
3500          (3.46942e+06 212659 -9.08303e+06) (2.79794e+06 345584 -9.64655e+06) (-445094 -1.15357e+06 -1.04265e+07) (269277 -2.63306e+06 -7.22415e+06) (352569 954716 -1.13427e+07) (786525 591700 -7.19055e+06) (582581 -314202 -1.15282e+07) (327778 -751674 -8.50017e+06) (343876 396561 -9.53282e+06) (-221183 501500 -9.19733e+06) (-41117.2 46550 -9.34561e+06)
3550          (3.46943e+06 212661 -9.08259e+06) (2.79797e+06 345583 -9.64614e+06) (-445108 -1.15358e+06 -1.04261e+07) (269280 -2.63313e+06 -7.22378e+06) (352588 954723 -1.13426e+07) (786548 591717 -7.19036e+06) (582575 -314201 -1.15282e+07) (327759 -751668 -8.5003e+06) (343884 396583 -9.53316e+06) (-221172 501452 -9.19783e+06) (-41169 46514.8 -9.34624e+06)
3600          (3.46943e+06 212662 -9.0824e+06) (2.79797e+06 345585 -9.64596e+06) (-445101 -1.15358e+06 -1.0426e+07) (269280 -2.63311e+06 -7.22363e+06) (352585 954729 -1.13425e+07) (786547 591725 -7.19026e+06) (582587 -314198 -1.15282e+07) (327772 -751679 -8.50034e+06) (343888 396591 -9.53329e+06) (-221183 501487 -9.19806e+06) (-41150 46528.2 -9.34654e+06)
3650          (3.46944e+06 212663 -9.08222e+06) (2.79799e+06 345584 -9.64578e+06) (-445106 -1.15358e+06 -1.04258e+07) (269273 -2.63316e+06 -7.22345e+06) (352598 954751 -1.13424e+07) (786569 591733 -7.19014e+06) (582620 -314216 -1.15283e+07) (327797 -751727 -8.50037e+06) (343906 396603 -9.53344e+06) (-221198 501527 -9.19827e+06) (-41141.1 46537.4 -9.34685e+06)
3700          (3.46944e+06 212665 -9.08203e+06) (2.798e+06 345584 -9.64561e+06) (-445103 -1.15359e+06 -1.04256e+07) (269279 -2.63316e+06 -7.22331e+06) (352598 954749 -1.13423e+07) (786572 591735 -7.19006e+06) (582624 -314215 -1.15283e+07) (327796 -751731 -8.50042e+06) (343907 396606 -9.53357e+06) (-221198 501524 -9.19849e+06) (-41149.1 46533.9 -9.34715e+06)
3750          (3.46945e+06 212666 -9.08185e+06) (2.79801e+06 345585 -9.64544e+06) (-445107 -1.15359e+06 -1.04255e+07) (269273 -2.63319e+06 -7.22314e+06) (352607 954761 -1.13422e+07) (786584 591746 -7.18995e+06) (582634 -314218 -1.15283e+07) (327805 -751744 -8.50044e+06) (343916 396621 -9.5337e+06) (-221203 501541 -9.1987e+06) (-41150.2 46534.4 -9.34747e+06)
3800          (3.46945e+06 212666 -9.08185e+06) (2.79801e+06 345585 -9.64544e+06) (-445107 -1.15359e+06 -1.04255e+07) (269273 -2.63319e+06 -7.22314e+06) (352607 954761 -1.13422e+07) (786584 591746 -7.18995e+06) (582634 -314218 -1.15283e+07) (327805 -751744 -8.50044e+06) (343916 396621 -9.5337e+06) (-221203 501541 -9.1987e+06) (-41150.2 46534.4 -9.34747e+06)
3850          (3.46945e+06 212666 -9.08185e+06) (2.79801e+06 345585 -9.64544e+06) (-445107 -1.15359e+06 -1.04255e+07) (269273 -2.63319e+06 -7.22314e+06) (352607 954761 -1.13422e+07) (786584 591746 -7.18995e+06) (582634 -314218 -1.15283e+07) (327805 -751744 -8.50044e+06) (343916 396621 -9.5337e+06) (-221203 501541 -9.1987e+06) (-41150.2 46534.4 -9.34747e+06)
3900          (3.46945e+06 212666 -9.08185e+06) (2.79801e+06 345585 -9.64544e+06) (-445107 -1.15359e+06 -1.04255e+07) (269273 -2.63319e+06 -7.22314e+06) (352607 954761 -1.13422e+07) (786584 591746 -7.18995e+06) (582634 -314218 -1.15283e+07) (327805 -751744 -8.50044e+06) (343916 396621 -9.5337e+06) (-221203 501541 -9.1987e+06) (-41150.2 46534.4 -9.34747e+06)
3950          (3.46945e+06 212666 -9.08185e+06) (2.79801e+06 345585 -9.64544e+06) (-445107 -1.15359e+06 -1.04255e+07) (269273 -2.63319e+06 -7.22314e+06) (352607 954761 -1.13422e+07) (786584 591746 -7.18995e+06) (582634 -314218 -1.15283e+07) (327805 -751744 -8.50044e+06) (343916 396621 -9.5337e+06) (-221203 501541 -9.1987e+06) (-41150.2 46534.4 -9.34747e+06)
4000          (3.46945e+06 212666 -9.08185e+06) (2.79801e+06 345585 -9.64544e+06) (-445107 -1.15359e+06 -1.04255e+07) (269273 -2.63319e+06 -7.22314e+06) (352607 954761 -1.13422e+07) (786584 591746 -7.18995e+06) (582634 -314218 -1.15283e+07) (327805 -751744 -8.50044e+06) (343916 396621 -9.5337e+06) (-221203 501541 -9.1987e+06) (-41150.2 46534.4 -9.34747e+06)
4050          (3.46945e+06 212666 -9.08185e+06) (2.79801e+06 345585 -9.64544e+06) (-445107 -1.15359e+06 -1.04255e+07) (269273 -2.63319e+06 -7.22314e+06) (352607 954761 -1.13422e+07) (786584 591746 -7.18995e+06) (582634 -314218 -1.15283e+07) (327805 -751744 -8.50044e+06) (343916 396621 -9.5337e+06) (-221203 501541 -9.1987e+06) (-41150.2 46534.4 -9.34747e+06)
4100          (3.46945e+06 212666 -9.08185e+06) (2.79801e+06 345585 -9.64544e+06) (-445107 -1.15359e+06 -1.04255e+07) (269273 -2.63319e+06 -7.22314e+06) (352607 954761 -1.13422e+07) (786584 591746 -7.18995e+06) (582634 -314218 -1.15283e+07) (327805 -751744 -8.50044e+06) (343916 396621 -9.5337e+06) (-221203 501541 -9.1987e+06) (-41150.2 46534.4 -9.34747e+06)