# Probe 0 (0.0015 0.0015 0)
# Probe 1 (0.0015 0.0015 0.002)
# Probe 2 (0.0015 0.0015 0.004)
# Probe 3 (0.0015 0.0015 0.006)
# Probe 4 (0.0015 0.0015 0.008)
# Probe 5 (0.0015 0.0015 0.01)
# Probe 6 (0.0015 0.0015 0.012)
# Probe 7 (0.0015 0.0015 0.014)
# Probe 8 (0.0015 0.0015 0.016)
# Probe 9 (0.0015 0.0015 0.018)
# Probe 10 (0.0015 0.0015 0.02)
# Time        0             1             2             3             4             5             6             7             8             9             10           
50            115878        71563.8       24875.3       8833.35       3527.82       1898.43       1405.25       1340.11       1687.63       2983.41       6768.14      
100           143731        102877        42866.4       15582.8       5845.54       2694.85       1668.33       1464.13       1829.1        3255.22       7119.65      
150           158919        124654        63919.7       25293.7       9447.53       3968.91       2091.1        1646.69       2002.24       3562.39       7504.99      
200           168270        138656        82490.7       37200.1       14522.1       5855.36       2727.97       1907.27       2212.1        3896.37       7893.46      
250           174601        148223        96826.7       49833.2       21112.4       8513.33       3654.17       2274.6        2468.15       4253.18       8267.7       
300           179251        155287        107898        61731.8       28952.7       12094.4       4964.72       2786.59       2784.47       4633.38       8621.77      
350           182880        160819        116758        72159.8       37420         16668.1       6768.27       3491.47       3180.53       5041.62       8956.57      
400           185822        165313        124041        81089         45799.1       22145.3       9173.51       4449.24       3683.18       5487.19       9277.56      
450           188267        169051        130145        88737.5       53618.7       28259.2       12264         5727.73       4326.11       5983.89       9593.19      
500           190335        172217        135344        95350.1       60732.7       34652.5       16067.2       7401.2        5151.92       6551.3        9914.69      
550           192114        174944        139843        101143        67176.6       41016.2       20524.9       9541.09       6211.92       7215.38       10255.9      
600           193672        177333        143802        106290        73041.1       47166.6       25492         12200.2       7563.72       8008.76       10633.2      
650           195056        179458        147337        110926        78418.5       53029.7       30772.6       15394.1       9266.03       8970.09       11065.5      
700           196305        181377        150539        115153        83388.6       58592.6       36178.6       19089.8       11370.7       10142.1       11573.7      
750           197446        183129        153472        119047        88015.2       63868.7       41574.3       23207.4       13911.2       11567.3       12179.1      
800           198498        184747        156187        122667        92351.3       68883         46885.3       27636.4       16888.6       13281.6       12902.1      
850           199478        186255        158720        126058        96439.5       73662.1       52074.7       32255.3       20260.2       15302.5       13757.1      
900           200397        187670        161101        129255        100313        78228.3       57121.2       36950         23940.6       17621.2       14749        
950           201265        189005        163351        132282        103996        82595.5       62005.6       41622.7       27816.1       20197         15870.3      
1000          202087        190270        165484        135157        107502        86768.1       66706.2       46194.9       31766.7       22960.6       17099.2      
1050          202867        191471        167510        137888        110836        90742.9       71199.7       50605.4       35683.8       25824.1       18402.3      
1100          203607        192610        169431        140478        113998        94511.8       75464         54807.6       39479.7       28695.9       19738.7      
1150          204307        193688        171249        142926        116982        98064.6       79479.1       58766.7       43089.1       31493.2       21066.6      
1200          204967        194704        172960        145227        119783        101391        83229         62458.2       46467.1       34151.2       22348.7      
1250          205586        195656        174562        147378        122394        104484        86702.6       65866.5       49586.3       36625.5       23556.1      
1300          206162        196542        176052        149375        124812        107337        89894.1       68984.9       52433.4       38890.9       24670.3      
1350          206695        197362        177428        151215        127033        109950        92803.6       71814.1       55006.9       40938.2       25681.6      
1400          207184        198114        178689        152898        129059        112325        95437         74362.3       57314.6       42770.3       26588.4      
1450          207630        198799        179836        154426        130893        114468        97803.6       76641         59368.9       44395.9       27393        
1500          208034        199419        180873        155805        132544        116390        99917.2       78667         61186.8       45829.3       28102.4      
1550          208397        199978        181806        157043        134021        118105        101795        80458.9       62787.8       47087.1       28724.3      
1600          208723        200477        182640        158147        135336        119626        103454        82036.9       64192.2       48186.8       29267.2      
1650          209012        200921        183380        159126        136499        120969        104915        83421.3       65420         49145.2       29739.9      
1700          209268        201314        184035        159991        137525        122150        106197        84631.9       66490.5       49978.7       30150.4      
1750          209494        201661        184611        160751        138425        123186        107317        85687.8       67421.7       50702         30506.2      
1800          209692        201964        185117        161417        139213        124090        108294        86606.5       68230.3       51328.7       30814.2      
1850          209865        202230        185559        161999        139901        124878        109144        87404.3       68931.1       51871.2       31080.5      
1900          210016        202462        185944        162506        140499        125563        109882        88095.9       69537.7       52340         31310.5      
1950          210148        202664        186280        162947        141019        126158        110522        88694.5       70062         52744.7       31509        
2000          210262        202840        186571        163330        141470        126673        111075        89211.9       70514.8       53093.9       31680.2      
2050          210362        202992        186824        163661        141860        127118        111554        89658.8       70905.4       53394.9       31827.7      
2100          210447        203123        187042        163948        142198        127503        111967        90044.3       71242.2       53654.2       31954.7      
2150          210522        203237        187231        164196        142489        127836        112323        90376.7       71532.3       53877.5       32064        
2200          210586        203335        187394        164409        142740        128122        112630        90663         71782.1       54069.7       32158.1      
2250          210641        203420        187534        164594        142957        128369        112895        90909.8       71997.3       54235.3       32239.1      
2300          210688        203493        187655        164752        143144        128582        113123        91121.8       72182.2       54377.4       32308.6      
2350          210729        203556        187760        164889        143304        128765        113319        91304.1       72341.1       54499.4       32368.3      
2400          210765        203610        187849        165007        143443        128922        113487        91461.1       72477.8       54604.5       32419.7      
2450          210795        203657        187927        165108        143561        129057        113632        91595.6       72595.1       54694.4       32463.7      
2500          210821        203696        187993        165195        143663        129173        113756        91711.2       72695.8       54771.9       32501.7      
2550          210844        203731        188049        165269        143750        129273        113862        91810.1       72781.9       54838         32534        
2600          210863        203760        188098        165333        143825        129358        113953        91894.9       72855.8       54894.8       32561.7      
2650          210879        203785        188140        165388        143890        129431        114032        91967.9       72919.4       54943.6       32585.6      
2700          210893        203807        188176        165435        143945        129494        114099        92030.8       72974.1       54985.6       32606.1      
2750          210905        203825        188206        165475        143992        129548        114156        92083.9       73020.4       55021.2       32623.5      
2800          210915        203841        188232        165509        144032        129594        114205        92129.6       73060.1       55051.8       32638.6      
2850          210924        203855        188255        165538        144066        129633        114247        92168.6       73094.1       55077.9       32651.3      
2900          210932        203866        188274        165563        144096        129666        114283        92202.2       73123.2       55100.2       32662.3      
2950          210938        203876        188290        165584        144121        129694        114313        92229.9       73147.4       55118.9       32671.4      
3000          210943        203884        188304        165602        144142        129719        114339        92254.1       73168.5       55135         32679.3      
3050          210948        203892        188316        165619        144162        129741        114363        92276.4       73187.9       55149.9       32686.6      
3100          210953        203898        188327        165632        144177        129759        114382        92294         73203.3       55161.8       32692.4      
3150          210956        203903        188335        165643        144189        129773        114397        92308         73215.6       55171.3       32697        
3200          210959        203907        188342        165653        144202        129786        114412        92321.7       73227.4       55180.4       32701.4      
3250          210961        203911        188349        165662        144212        129798        114424        92333.2       73237.4       55188.1       32705.2      
3300          210964        203915        188354        165669        144220        129807        114434        92342.5       73245.7       55194.3       32708.2      
3350          210965        203917        188359        165675        144227        129815        114443        92350.3       73252.5       55199.5       32710.8      
3400          210967        203920        188363        165680        144234        129823        114451        92358.2       73259.2       55204.8       32713.4      
3450          210968        203922        188366        165684        144238        129828        114456        92363.3       73263.7       55208.2       32715.1      
3500          210969        203923        188369        165688        144243        129833        114462        92368.4       73268.2       55211.8       32716.8      
3550          210970        203925        188372        165692        144247        129838        114467        92373.1       73272.3       55214.9       32718.3      
3600          210971        203926        188374        165694        144250        129841        114471        92376.6       73275.4       55217.3       32719.5      
3650          210971        203927        188375        165695        144251        129843        114472        92378.3       73277         55218.5       32720.2      
3700          210972        203927        188375        165696        144252        129845        114474        92380         73278.5       55219.7       32720.7      
3750          210972        203928        188376        165698        144254        129846        114476        92381.7       73280         55220.9       32721.4      
3800          210972        203928        188377        165699        144255        129848        114478        92383.4       73281.5       55222.1       32721.9      
3850          210972        203928        188377        165699        144255        129848        114478        92383.4       73281.5       55222.1       32721.9      
3900          210972        203928        188377        165699        144255        129848        114478        92383.4       73281.5       55222.1       32721.9      
3950          210972        203928        188377        165699        144255        129848        114478        92383.4       73281.5       55222.1       32721.9      
4000          210972        203928        188377        165699        144255        129848        114478        92383.4       73281.5       55222.1       32721.9      
4050          210972        203928        188377        165699        144255        129848        114478        92383.4       73281.5       55222.1       32721.9      
4100          210972        203928        188377        165699        144255        129848        114478        92383.4       73281.5       55222.1       32721.9      
4150          210972        203928        188377        165699        144255        129848        114478        92383.4       73281.5       55222.1       32721.9      
4200          210972        203928        188377        165699        144255        129848        114478        92383.4       73281.5       55222.1       32721.9      
4250          210972        203928        188377        165699        144255        129848        114478        92383.4       73281.5       55222.1       32721.9      
4300          210972        203928        188377        165699        144255        129848        114478        92383.4       73281.5       55222.1       32721.9      
4350          210972        203928        188377        165699        144255        129848        114478        92383.4       73281.5       55222.1       32721.9      
4400          210972        203928        188377        165699        144255        129848        114478        92383.4       73281.5       55222.1       32721.9      
4450          210972        203928        188377        165699        144255        129848        114478        92383.4       73281.5       55222.1       32721.9      
4500          210972        203928        188377        165699        144255        129848        114478        92383.4       73281.5       55222.1       32721.9      
4550          210972        203928        188377        165699        144255        129848        114478        92383.4       73281.5       55222.1       32721.9      
4600          210972        203928        188377        165699        144255        129848        114478        92383.4       73281.5       55222.1       32721.9      
4650          210972        203928        188377        165699        144255        129848        114478        92383.4       73281.5       55222.1       32721.9      
4700          210972        203928        188377        165699        144255        129848        114478        92383.4       73281.5       55222.1       32721.9      
4750          210972        203928        188377        165699        144255        129848        114478        92383.4       73281.5       55222.1       32721.9      
4800          210972        203928        188377        165699        144255        129848        114478        92383.4       73281.5       55222.1       32721.9      
4850          210972        203928        188377        165699        144255        129848        114478        92383.4       73281.5       55222.1       32721.9      
4900          210972        203928        188377        165699        144255        129848        114478        92383.4       73281.5       55222.1       32721.9      
4950          210972        203928        188377        165699        144255        129848        114478        92383.4       73281.5       55222.1       32721.9      
5000          210972        203928        188377        165699        144255        129848        114478        92383.4       73281.5       55222.1       32721.9      
