# Probe 0 (0.0015 0.0015 0)
# Probe 1 (0.0015 0.0015 0.002)
# Probe 2 (0.0015 0.0015 0.004)
# Probe 3 (0.0015 0.0015 0.006)
# Probe 4 (0.0015 0.0015 0.008)
# Probe 5 (0.0015 0.0015 0.01)
# Probe 6 (0.0015 0.0015 0.012)
# Probe 7 (0.0015 0.0015 0.014)
# Probe 8 (0.0015 0.0015 0.016)
# Probe 9 (0.0015 0.0015 0.018)
# Probe 10 (0.0015 0.0015 0.02)
# Time        0             1             2             3             4             5             6             7             8             9             10           
50            0.000672844   0.00065438    0.000627163   0.000660899   0.000695953   0.000641091   0.000588737   0.000623835   0.000613575   0.000576029   0.000687566  
100           0.000672844   0.00065438    0.000627163   0.000660899   0.000695953   0.000641091   0.000588737   0.000623835   0.000613575   0.000576029   0.000687566  
150           0.000672844   0.00065438    0.000627163   0.000660899   0.000695953   0.000641091   0.000588737   0.000623835   0.000613575   0.000576029   0.000687566  
200           0.000672844   0.00065438    0.000627163   0.000660899   0.000695953   0.000641091   0.000588737   0.000623835   0.000613575   0.000576029   0.000687566  
250           0.000672844   0.00065438    0.000627163   0.000660899   0.000695953   0.000641091   0.000588737   0.000623835   0.000613575   0.000576029   0.000687566  
300           0.000672844   0.00065438    0.000627163   0.000660899   0.000695953   0.000641091   0.000588737   0.000623835   0.000613575   0.000576029   0.000687566  
350           0.000672844   0.00065438    0.000627163   0.000660899   0.000695953   0.000641091   0.000588737   0.000623835   0.000613575   0.000576029   0.000687566  
400           0.000672844   0.00065438    0.000627163   0.000660899   0.000695953   0.000641091   0.000588737   0.000623835   0.000613575   0.000576029   0.000687566  
450           0.000672844   0.00065438    0.000627163   0.000660899   0.000695953   0.000641091   0.000588737   0.000623835   0.000613575   0.000576029   0.000687566  
500           0.000672844   0.00065438    0.000627163   0.000660899   0.000695953   0.000641091   0.000588737   0.000623835   0.000613575   0.000576029   0.000687566  
550           0.000672844   0.00065438    0.000627163   0.000660899   0.000695953   0.000641091   0.000588737   0.000623835   0.000613575   0.000576029   0.000687566  
600           0.000672844   0.00065438    0.000627163   0.000660899   0.000695953   0.000641091   0.000588737   0.000623835   0.000613575   0.000576029   0.000687566  
650           0.000672844   0.00065438    0.000627163   0.000660899   0.000695953   0.000641091   0.000588737   0.000623835   0.000613575   0.000576029   0.000687566  
700           0.000672844   0.00065438    0.000627163   0.000660899   0.000695953   0.000641091   0.000588737   0.000623835   0.000613575   0.000576029   0.000687566  
750           0.000672844   0.00065438    0.000627163   0.000660899   0.000695953   0.000641091   0.000588737   0.000623835   0.000613575   0.000576029   0.000687566  
800           0.000672844   0.00065438    0.000627163   0.000660899   0.000695953   0.000641091   0.000588737   0.000623835   0.000613575   0.000576029   0.000687566  
850           0.000672844   0.00065438    0.000627163   0.000660899   0.000695953   0.000641091   0.000588737   0.000623835   0.000613575   0.000576029   0.000687566  
900           0.000672844   0.00065438    0.000627163   0.000660899   0.000695953   0.000641091   0.000588737   0.000623835   0.000613575   0.000576029   0.000687566  
950           0.000672844   0.00065438    0.000627163   0.000660899   0.000695953   0.000641091   0.000588737   0.000623835   0.000613575   0.000576029   0.000687566  
1000          0.000672844   0.00065438    0.000627163   0.000660899   0.000695953   0.000641091   0.000588737   0.000623835   0.000613575   0.000576029   0.000687566  
1050          0.000672844   0.00065438    0.000627163   0.000660899   0.000695953   0.000641091   0.000588737   0.000623835   0.000613575   0.000576029   0.000687566  
1100          0.000672844   0.00065438    0.000627163   0.000660899   0.000695953   0.000641091   0.000588737   0.000623835   0.000613575   0.000576029   0.000687566  
1150          0.000672844   0.00065438    0.000627163   0.000660899   0.000695953   0.000641091   0.000588737   0.000623835   0.000613575   0.000576029   0.000687566  
1200          0.000672844   0.00065438    0.000627163   0.000660899   0.000695953   0.000641091   0.000588737   0.000623835   0.000613575   0.000576029   0.000687566  
1250          0.000672844   0.00065438    0.000627163   0.000660899   0.000695953   0.000641091   0.000588737   0.000623835   0.000613575   0.000576029   0.000687566  
1300          0.000672844   0.00065438    0.000627163   0.000660899   0.000695953   0.000641091   0.000588737   0.000623835   0.000613575   0.000576029   0.000687566  
1350          0.000672844   0.00065438    0.000627163   0.000660899   0.000695953   0.000641091   0.000588737   0.000623835   0.000613575   0.000576029   0.000687566  
1400          0.000672844   0.00065438    0.000627163   0.000660899   0.000695953   0.000641091   0.000588737   0.000623835   0.000613575   0.000576029   0.000687566  
1450          0.000672844   0.00065438    0.000627163   0.000660899   0.000695953   0.000641091   0.000588737   0.000623835   0.000613575   0.000576029   0.000687566  
1500          0.000672844   0.00065438    0.000627163   0.000660899   0.000695953   0.000641091   0.000588737   0.000623835   0.000613575   0.000576029   0.000687566  
1550          0.000672844   0.00065438    0.000627163   0.000660899   0.000695953   0.000641091   0.000588737   0.000623835   0.000613575   0.000576029   0.000687566  
1600          0.000672844   0.00065438    0.000627163   0.000660899   0.000695953   0.000641091   0.000588737   0.000623835   0.000613575   0.000576029   0.000687566  
1650          0.000672844   0.00065438    0.000627163   0.000660899   0.000695953   0.000641091   0.000588737   0.000623835   0.000613575   0.000576029   0.000687566  
1700          0.000672844   0.00065438    0.000627163   0.000660899   0.000695953   0.000641091   0.000588737   0.000623835   0.000613575   0.000576029   0.000687566  
1750          0.000672844   0.00065438    0.000627163   0.000660899   0.000695953   0.000641091   0.000588737   0.000623835   0.000613575   0.000576029   0.000687566  
1800          0.000672844   0.00065438    0.000627163   0.000660899   0.000695953   0.000641091   0.000588737   0.000623835   0.000613575   0.000576029   0.000687566  
1850          0.000672844   0.00065438    0.000627163   0.000660899   0.000695953   0.000641091   0.000588737   0.000623835   0.000613575   0.000576029   0.000687566  
1900          0.000672844   0.00065438    0.000627163   0.000660899   0.000695953   0.000641091   0.000588737   0.000623835   0.000613575   0.000576029   0.000687566  
1950          0.000672844   0.00065438    0.000627163   0.000660899   0.000695953   0.000641091   0.000588737   0.000623835   0.000613575   0.000576029   0.000687566  
2000          0.000672844   0.00065438    0.000627163   0.000660899   0.000695953   0.000641091   0.000588737   0.000623835   0.000613575   0.000576029   0.000687566  
2050          0.000672844   0.00065438    0.000627163   0.000660899   0.000695953   0.000641091   0.000588737   0.000623835   0.000613575   0.000576029   0.000687566  
2100          0.000672844   0.00065438    0.000627163   0.000660899   0.000695953   0.000641091   0.000588737   0.000623835   0.000613575   0.000576029   0.000687566  
2150          0.000672844   0.00065438    0.000627163   0.000660899   0.000695953   0.000641091   0.000588737   0.000623835   0.000613575   0.000576029   0.000687566  
2200          0.000672844   0.00065438    0.000627163   0.000660899   0.000695953   0.000641091   0.000588737   0.000623835   0.000613575   0.000576029   0.000687566  
2250          0.000672844   0.00065438    0.000627163   0.000660899   0.000695953   0.000641091   0.000588737   0.000623835   0.000613575   0.000576029   0.000687566  
2300          0.000672844   0.00065438    0.000627163   0.000660899   0.000695953   0.000641091   0.000588737   0.000623835   0.000613575   0.000576029   0.000687566  
2350          0.000672844   0.00065438    0.000627163   0.000660899   0.000695953   0.000641091   0.000588737   0.000623835   0.000613575   0.000576029   0.000687566  
2400          0.000672844   0.00065438    0.000627163   0.000660899   0.000695953   0.000641091   0.000588737   0.000623835   0.000613575   0.000576029   0.000687566  
2450          0.000672844   0.00065438    0.000627163   0.000660899   0.000695953   0.000641091   0.000588737   0.000623835   0.000613575   0.000576029   0.000687566  
2500          0.000672844   0.00065438    0.000627163   0.000660899   0.000695953   0.000641091   0.000588737   0.000623835   0.000613575   0.000576029   0.000687566  
2550          0.000672844   0.00065438    0.000627163   0.000660899   0.000695953   0.000641091   0.000588737   0.000623835   0.000613575   0.000576029   0.000687566  
2600          0.000672844   0.00065438    0.000627163   0.000660899   0.000695953   0.000641091   0.000588737   0.000623835   0.000613575   0.000576029   0.000687566  
2650          0.000672844   0.00065438    0.000627163   0.000660899   0.000695953   0.000641091   0.000588737   0.000623835   0.000613575   0.000576029   0.000687566  
2700          0.000672844   0.00065438    0.000627163   0.000660899   0.000695953   0.000641091   0.000588737   0.000623835   0.000613575   0.000576029   0.000687566  
2750          0.000672844   0.00065438    0.000627163   0.000660899   0.000695953   0.000641091   0.000588737   0.000623835   0.000613575   0.000576029   0.000687566  
2800          0.000672844   0.00065438    0.000627163   0.000660899   0.000695953   0.000641091   0.000588737   0.000623835   0.000613575   0.000576029   0.000687566  
2850          0.000672844   0.00065438    0.000627163   0.000660899   0.000695953   0.000641091   0.000588737   0.000623835   0.000613575   0.000576029   0.000687566  
2900          0.000672844   0.00065438    0.000627163   0.000660899   0.000695953   0.000641091   0.000588737   0.000623835   0.000613575   0.000576029   0.000687566  
2950          0.000672844   0.00065438    0.000627163   0.000660899   0.000695953   0.000641091   0.000588737   0.000623835   0.000613575   0.000576029   0.000687566  
3000          0.000672844   0.00065438    0.000627163   0.000660899   0.000695953   0.000641091   0.000588737   0.000623835   0.000613575   0.000576029   0.000687566  
3050          0.000672844   0.00065438    0.000627163   0.000660899   0.000695953   0.000641091   0.000588737   0.000623835   0.000613575   0.000576029   0.000687566  
3100          0.000672844   0.00065438    0.000627163   0.000660899   0.000695953   0.000641091   0.000588737   0.000623835   0.000613575   0.000576029   0.000687566  
3150          0.000672844   0.00065438    0.000627163   0.000660899   0.000695953   0.000641091   0.000588737   0.000623835   0.000613575   0.000576029   0.000687566  
3200          0.000672844   0.00065438    0.000627163   0.000660899   0.000695953   0.000641091   0.000588737   0.000623835   0.000613575   0.000576029   0.000687566  
3250          0.000672844   0.00065438    0.000627163   0.000660899   0.000695953   0.000641091   0.000588737   0.000623835   0.000613575   0.000576029   0.000687566  
3300          0.000672844   0.00065438    0.000627163   0.000660899   0.000695953   0.000641091   0.000588737   0.000623835   0.000613575   0.000576029   0.000687566  
3350          0.000672844   0.00065438    0.000627163   0.000660899   0.000695953   0.000641091   0.000588737   0.000623835   0.000613575   0.000576029   0.000687566  
3400          0.000672844   0.00065438    0.000627163   0.000660899   0.000695953   0.000641091   0.000588737   0.000623835   0.000613575   0.000576029   0.000687566  
3450          0.000672844   0.00065438    0.000627163   0.000660899   0.000695953   0.000641091   0.000588737   0.000623835   0.000613575   0.000576029   0.000687566  
3500          0.000672844   0.00065438    0.000627163   0.000660899   0.000695953   0.000641091   0.000588737   0.000623835   0.000613575   0.000576029   0.000687566  
3550          0.000672844   0.00065438    0.000627163   0.000660899   0.000695953   0.000641091   0.000588737   0.000623835   0.000613575   0.000576029   0.000687566  
3600          0.000672844   0.00065438    0.000627163   0.000660899   0.000695953   0.000641091   0.000588737   0.000623835   0.000613575   0.000576029   0.000687566  
3650          0.000672844   0.00065438    0.000627163   0.000660899   0.000695953   0.000641091   0.000588737   0.000623835   0.000613575   0.000576029   0.000687566  
3700          0.000672844   0.00065438    0.000627163   0.000660899   0.000695953   0.000641091   0.000588737   0.000623835   0.000613575   0.000576029   0.000687566  
3750          0.000672844   0.00065438    0.000627163   0.000660899   0.000695953   0.000641091   0.000588737   0.000623835   0.000613575   0.000576029   0.000687566  
3800          0.000672844   0.00065438    0.000627163   0.000660899   0.000695953   0.000641091   0.000588737   0.000623835   0.000613575   0.000576029   0.000687566  
3850          0.000672844   0.00065438    0.000627163   0.000660899   0.000695953   0.000641091   0.000588737   0.000623835   0.000613575   0.000576029   0.000687566  
3900          0.000672844   0.00065438    0.000627163   0.000660899   0.000695953   0.000641091   0.000588737   0.000623835   0.000613575   0.000576029   0.000687566  
3950          0.000672844   0.00065438    0.000627163   0.000660899   0.000695953   0.000641091   0.000588737   0.000623835   0.000613575   0.000576029   0.000687566  
4000          0.000672844   0.00065438    0.000627163   0.000660899   0.000695953   0.000641091   0.000588737   0.000623835   0.000613575   0.000576029   0.000687566  
4050          0.000672844   0.00065438    0.000627163   0.000660899   0.000695953   0.000641091   0.000588737   0.000623835   0.000613575   0.000576029   0.000687566  
4100          0.000672844   0.00065438    0.000627163   0.000660899   0.000695953   0.000641091   0.000588737   0.000623835   0.000613575   0.000576029   0.000687566  
4150          0.000672844   0.00065438    0.000627163   0.000660899   0.000695953   0.000641091   0.000588737   0.000623835   0.000613575   0.000576029   0.000687566  
4200          0.000672844   0.00065438    0.000627163   0.000660899   0.000695953   0.000641091   0.000588737   0.000623835   0.000613575   0.000576029   0.000687566  
4250          0.000672844   0.00065438    0.000627163   0.000660899   0.000695953   0.000641091   0.000588737   0.000623835   0.000613575   0.000576029   0.000687566  
4300          0.000672844   0.00065438    0.000627163   0.000660899   0.000695953   0.000641091   0.000588737   0.000623835   0.000613575   0.000576029   0.000687566  
4350          0.000672844   0.00065438    0.000627163   0.000660899   0.000695953   0.000641091   0.000588737   0.000623835   0.000613575   0.000576029   0.000687566  
4400          0.000672844   0.00065438    0.000627163   0.000660899   0.000695953   0.000641091   0.000588737   0.000623835   0.000613575   0.000576029   0.000687566  
4450          0.000672844   0.00065438    0.000627163   0.000660899   0.000695953   0.000641091   0.000588737   0.000623835   0.000613575   0.000576029   0.000687566  
4500          0.000672844   0.00065438    0.000627163   0.000660899   0.000695953   0.000641091   0.000588737   0.000623835   0.000613575   0.000576029   0.000687566  
4550          0.000672844   0.00065438    0.000627163   0.000660899   0.000695953   0.000641091   0.000588737   0.000623835   0.000613575   0.000576029   0.000687566  
4600          0.000672844   0.00065438    0.000627163   0.000660899   0.000695953   0.000641091   0.000588737   0.000623835   0.000613575   0.000576029   0.000687566  
4650          0.000672844   0.00065438    0.000627163   0.000660899   0.000695953   0.000641091   0.000588737   0.000623835   0.000613575   0.000576029   0.000687566  
4700          0.000672844   0.00065438    0.000627163   0.000660899   0.000695953   0.000641091   0.000588737   0.000623835   0.000613575   0.000576029   0.000687566  
4750          0.000672844   0.00065438    0.000627163   0.000660899   0.000695953   0.000641091   0.000588737   0.000623835   0.000613575   0.000576029   0.000687566  
4800          0.000672844   0.00065438    0.000627163   0.000660899   0.000695953   0.000641091   0.000588737   0.000623835   0.000613575   0.000576029   0.000687566  
4850          0.000672844   0.00065438    0.000627163   0.000660899   0.000695953   0.000641091   0.000588737   0.000623835   0.000613575   0.000576029   0.000687566  
4900          0.000672844   0.00065438    0.000627163   0.000660899   0.000695953   0.000641091   0.000588737   0.000623835   0.000613575   0.000576029   0.000687566  
4950          0.000672844   0.00065438    0.000627163   0.000660899   0.000695953   0.000641091   0.000588737   0.000623835   0.000613575   0.000576029   0.000687566  
5000          0.000672844   0.00065438    0.000627163   0.000660899   0.000695953   0.000641091   0.000588737   0.000623835   0.000613575   0.000576029   0.000687566  
