# Probe 0 (0.0015 0.0015 0)
# Probe 1 (0.0015 0.0015 0.002)
# Probe 2 (0.0015 0.0015 0.004)
# Probe 3 (0.0015 0.0015 0.006)
# Probe 4 (0.0015 0.0015 0.008)
# Probe 5 (0.0015 0.0015 0.01)
# Probe 6 (0.0015 0.0015 0.012)
# Probe 7 (0.0015 0.0015 0.014)
# Probe 8 (0.0015 0.0015 0.016)
# Probe 9 (0.0015 0.0015 0.018)
# Probe 10 (0.0015 0.0015 0.02)
# Time        0             1             2             3             4             5             6             7             8             9             10           
50            (-705.369 -6.05887 34720.4) (14.3914 -38.4026 24598.2) (35.7049 35.9066 9363.51) (-0.00116235 3.98092 3133.22) (4.86247 -6.25423 979.307) (-5.18861 -3.20206 303.395) (-3.64302 1.84941 90.6565) (-2.4302 11.1381 -49.0705) (-5.26407 -1.35389 -215.346) (5.06421 -6.17323 -731.014) (-11.8987 -8.49892 -2104.22)
100           (-1683.11 -54.3285 28511.5) (-623.315 -145.473 25307.7) (121.456 47.0846 14306.5) (-4.15332 29.2152 5552.66) (10.5868 -7.89866 1837.35) (-5.03034 -3.05713 611.526) (-2.82427 2.16795 180.515) (-2.34848 11.3332 -32.9883) (-5.50257 -1.18675 -237.879) (6.40976 -10.1836 -779.137) (-17.8784 -15.7589 -2043.8)
150           (-2011.03 -97.2494 23587.1) (-1183.86 -204.093 22530.6) (253.263 203.6 17343.4) (-17.7312 123.898 8451.16) (17.5429 -12.8789 3113.05) (-4.90596 -3.10391 1092.79) (-1.54315 2.75015 327.74) (-2.23404 11.5662 0.972414) (-5.7681 -1.03476 -257.487) (7.81092 -14.6789 -829.807) (-23.2777 -23.5544 -1975.74)
200           (-2165.65 -120.593 20360.8) (-1450.41 -230.997 19958.2) (283.851 422.295 17925.9) (-57.1918 310.568 10883.2) (20.3217 -28.6264 4768.37) (-5.02906 -3.945 1776.74) (0.291701 3.78043 549.815) (-2.09642 11.8873 59.7847) (-6.08205 -0.910938 -270.374) (9.20827 -19.5851 -876.948) (-26.8664 -30.1732 -1902.27)
250           (-2262.44 -135.071 18148.2) (-1611.78 -246.176 18028.5) (266.333 558.507 17363.4) (-98.8824 540.571 12173.6) (9.69126 -66.1118 6629.38) (-5.91296 -7.18873 2676.97) (2.75596 5.58 868.415) (-1.94789 12.3843 152.931) (-6.46469 -0.828098 -272.011) (10.5653 -24.8358 -915.707) (-28.5068 -34.7303 -1824.97)
300           (-2330.69 -145.464 16510.7) (-1725.71 -256.977 16548) (262.756 643.911 16533.1) (-116.694 743.402 12445.9) (-15.7397 -128.676 8369.46) (-8.72701 -16.4983 3762.43) (5.82816 8.69975 1307.22) (-1.82507 13.2098 292.199) (-6.94974 -0.805492 -257.133) (11.8733 -30.3729 -942.312) (-28.6891 -37.4272 -1744.62)
350           (-2382.66 -153.442 15226.7) (-1812.63 -265.156 15364.7) (267.616 706.123 15721.9) (-126.557 904.252 12179.2) (-45.3168 -204.704 9676.7) (-15.8284 -37.645 4924.89) (9.19533 14.0183 1884.12) (-1.81096 14.6549 491.102) (-7.5921 -0.865178 -219.458) (13.1729 -36.1567 -953.396) (-28.0248 -38.9492 -1661.17)
400           (-2424.09 -159.884 14182.7) (-1882.12 -271.681 14392.3) (273.769 754.993 14996) (-136.144 1035.19 11721.2) (-70.8716 -276.249 10469.8) (-30.9032 -72.9808 5991.92) (11.9901 22.6331 2599.85) (-2.09323 17.2003 763.164) (-8.47999 -1.03818 -151.396) (14.5263 -42.1481 -945.376) (-26.9779 -39.9081 -1573.68)
450           (-2458.18 -165.206 13313.8) (-1939.39 -277.027 13577.7) (279.521 794.95 14359.3) (-144.89 1144.58 11225.9) (-93.043 -335.679 10862.6) (-57.7878 -114.744 6805.45) (12.4072 35.1328 3426.97) (-3.05334 21.6355 1119.14) (-9.77322 -1.36605 -44.5334) (16.036 -48.358 -914.271) (-25.8565 -40.7136 -1480.34)
500           (-2486.81 -169.689 12577.5) (-1987.58 -281.502 12883.9) (284.653 828.385 13799.6) (-152.462 1237.38 10743.1) (-113.622 -384.439 11007.1) (-96.3888 -150.318 7303.43) (7.54299 50.2112 4303.57) (-5.40618 29.0321 1562.88) (-11.7356 -1.92066 110.298) (17.8145 -54.8522 -855.294) (-24.8202 -41.5686 -1378.28)
550           (-2511.29 -173.532 11943.1) (-2028.84 -285.317 12283.4) (289.222 856.906 13302.5) (-158.999 1317.44 10285.1) (-132.761 -425.824 11011.9) (-141.228 -175.534 7521.66) (-6.0198 64.6968 5144.26) (-10.2844 40.6064 2085.67) (-14.7838 -2.83261 321.915) (19.9903 -61.7829 -762.745) (-23.9331 -42.5582 -1263.49)
600           (-2532.58 -176.883 11387.3) (-2064.78 -288.626 11755.2) (293.323 881.686 12855.7) (-164.705 1387.74 9853.52) (-150.299 -462.098 10940) (-185.924 -194.933 7540.17) (-30.1866 76.1658 5870.72) (-19.0172 57.4118 2661.33) (-19.5269 -4.34072 596.713) (22.7172 -69.4145 -630.207) (-23.2044 -43.7208 -1130.82)
650           (-2551.39 -179.854 10892.6) (-2096.61 -291.546 11283.2) (297.042 903.592 12449.2) (-169.757 1450.49 9447.03) (-166.323 -494.589 10825.5) (-227.173 -212.902 7434.94) (-63.0283 84.8204 6440.97) (-32.3687 80.104 3246.44) (-26.7535 -6.84543 935.989) (26.1875 -78.1385 -451.088) (-22.6151 -45.0923 -973.988)
700           (-2568.28 -182.527 10445.9) (-2125.22 -294.162 10855.8) (300.448 923.259 12075.5) (-174.294 1507.29 9063.52) (-181.048 -524.131 10687.4) (-264.502 -230.698 7258.84) (-99.5406 92.2519 6854.58) (-49.5767 109.198 3789.53) (-37.3156 -10.9098 1333.5) (30.6448 -88.4735 -219.593) (-22.1349 -46.7291 -785.902)
750           (-2583.62 -184.967 10037.7) (-2151.24 -296.542 10464.2) (303.568 941.117 11729) (-178.455 1559.21 8700.83) (-194.66 -551.205 10536) (-298.487 -248.121 7043.25) (-135.063 99.6007 7136.62) (-68.36 145.269 4247.21) (-51.8322 -17.1209 1774.18) (36.3762 -101.004 67.7447) (-21.7139 -48.6999 -559.245)
800           (-2597.74 -187.21 9660.75) (-2175.23 -298.724 10101.8) (306.501 957.58 11405.2) (-182.247 1607.38 8356.65) (-207.391 -576.416 10378.3) (-329.876 -264.909 6805.11) (-167.58 107.124 7319.49) (-86.5203 188.473 4597.71) (-70.4832 -25.9662 2234.65) (43.7313 -116.432 409.839) (-21.3446 -51.1528 -287.264)
850           (-2610.86 -189.296 9309.53) (-2197.53 -300.748 9763.49) (309.253 972.875 11100.6) (-185.769 1652.33 8028.96) (-219.358 -599.995 10217.5) (-359.182 -280.944 6554.47) (-196.92 114.747 7431.98) (-103.15 237.359 4843.06) (-92.5015 -37.4612 2687.51) (52.9991 -135.281 799.275) (-20.98 -54.2089 34.2883)
900           (-2623.13 -191.249 8979.9) (-2218.41 -302.639 9445.56) (311.85 987.194 10812.4) (-189.066 1694.59 7716.04) (-230.672 -622.195 10056.2) (-386.793 -296.241 6298.1) (-223.754 122.297 7497.11) (-118.478 289.462 5001.67) (-116.487 -51.1477 3107.8) (64.319 -157.822 1221.98) (-20.5852 -57.992 405.834)
950           (-2634.69 -193.091 8668.76) (-2238.09 -304.42 9145.11) (314.312 1000.69 10538.7) (-192.172 1734.52 7416.82) (-241.414 -643.203 9896.62) (-412.962 -310.844 6041.57) (-248.726 129.646 7532.24) (-132.917 342.367 5097.66) (-140.999 -66.2044 3479.7) (77.5437 -183.889 1659.45) (-20.1271 -62.5743 822.815)
1000          (-2645.63 -194.834 8373.92) (-2256.72 -306.104 8860.21) (316.651 1013.45 10278.4) (-195.113 1772.39 7130.95) (-251.63 -663.145 9741.07) (-437.828 -324.781 5789.83) (-272.218 136.718 7549.94) (-146.65 394.344 5153.02) (-165.07 -81.7207 3798.96) (92.2017 -212.822 2092.89) (-19.5776 -67.9363 1275.62)
1050          (-2656.01 -196.489 8094.05) (-2274.4 -307.702 8589.69) (318.875 1025.57 10030.9) (-197.902 1808.35 6858.68) (-261.343 -682.086 9591.61) (-461.442 -338.056 5547.08) (-294.393 143.473 7558.79) (-159.683 444.345 5184.38) (-188.232 -96.9476 4070.43) (107.609 -243.579 2507.19) (-18.9172 -73.9463 1750.7)
1100          (-2665.86 -198.059 7828.54) (-2291.17 -309.218 8333.09) (320.986 1037.06 9796.22) (-200.55 1842.46 6600.61) (-270.552 -700.048 9450.01) (-483.797 -350.653 5316.67) (-315.289 149.885 7564.44) (-171.976 491.761 5203.09) (-210.265 -111.407 4303.22) (123.065 -274.964 2893.04) (-18.1397 -80.3756 2232.7)
1150          (-2675.19 -199.546 7577.31) (-2307.06 -310.655 8090.41) (322.982 1047.94 9574.71) (-203.056 1874.71 6357.52) (-279.246 -717.023 9317.65) (-504.859 -362.545 5101.02) (-334.892 155.932 7570.34) (-183.496 536.229 5216.43) (-231.017 -124.862 4506.56) (138.003 -305.869 3246.57) (-17.2572 -86.9467 2706.78)
1200          (-2683.99 -200.948 7340.6) (-2322.04 -312.011 7861.93) (324.86 1058.2 9366.8) (-205.42 1905.07 6130.14) (-287.407 -732.983 9195.46) (-524.581 -373.702 4901.77) (-353.172 161.595 7578.49) (-194.218 577.52 5228.86) (-250.359 -137.226 4687.8) (152.05 -335.424 3567.61) (-16.3 -93.3927 3160.53)
1250          (-2692.25 -202.263 7118.78) (-2336.09 -313.285 7648.06) (326.617 1067.83 9172.92) (-207.637 1933.48 5919.05) (-295.018 -747.899 9083.97) (-542.922 -384.098 4719.8) (-370.1 166.86 7589.77) (-204.127 615.508 5242.78) (-268.191 -148.488 4851.88) (164.999 -363.037 3857.81) (-15.3111 -99.503 3584.96)
1300          (-2699.97 -203.49 6912.27) (-2349.2 -314.475 7449.16) (328.249 1076.8 8993.41) (-209.704 1959.89 5724.61) (-302.065 -761.743 8983.32) (-559.854 -393.713 4555.38) (-385.664 171.717 7604.32) (-213.216 650.151 5259.2) (-284.464 -158.672 5001.8) (176.766 -388.365 4119.32) (-14.3354 -105.142 3974.65)
1350          (-2707.12 -204.625 6721.33) (-2361.33 -315.578 7265.48) (329.755 1085.11 8828.43) (-211.617 1984.27 5546.88) (-308.544 -774.5 8893.34) (-575.371 -402.54 4408.19) (-399.867 176.163 7621.76) (-221.492 681.488 5278.2) (-299.179 -167.819 5139.18) (187.342 -411.268 4354.24) (-13.4105 -110.245 4327.25)
1400          (-2713.7 -205.672 6546.17) (-2372.51 -316.6 7097.19) (331.144 1092.76 8677.97) (-213.352 2006.65 5385.59) (-314.467 -786.209 8813.53) (-589.513 -410.612 4277.17) (-412.745 180.191 7641.41) (-228.965 709.669 5299.19) (-312.416 -176.018 5264.87) (196.78 -431.806 4564.54) (-12.5718 -114.823 4642.82)
1450          (-2719.71 -206.609 6386.64) (-2382.68 -317.511 6944.11) (332.402 1099.74 8541.64) (-214.958 2027 5240.37) (-319.82 -796.809 8743.15) (-602.258 -417.872 4161.53) (-424.354 183.848 7662.28) (-235.706 734.805 5321.63) (-324.181 -183.256 5379.26) (205.141 -449.97 4752.14) (-11.8419 -118.871 4922.74)
1500          (-2725.15 -207.472 6242.18) (-2391.9 -318.354 6805.65) (333.531 1106.05 8418.98) (-216.411 2045.34 5110.32) (-324.637 -806.359 8681.55) (-613.698 -424.411 4060.35) (-434.711 187.118 7683.82) (-241.704 757.065 5344.56) (-334.594 -189.655 5482.91) (212.486 -465.967 4918.54) (-11.166 -122.398 5169.4)
1550          (-2730.07 -208.25 6112.18) (-2400.21 -319.115 6681.18) (334.545 1111.73 8309.23) (-217.721 2061.82 4994.57) (-328.948 -814.926 8627.97) (-623.903 -430.256 3972.12) (-443.918 190.032 7705.34) (-247.026 776.709 5367.33) (-343.77 -195.282 5576.18) (218.923 -479.985 5065.58) (-10.5769 -125.479 5385.66)
1600          (-2734.47 -208.947 5995.91) (-2407.66 -319.797 6570) (335.45 1116.81 8211.6) (-218.893 2076.54 4892.09) (-332.784 -822.564 8581.5) (-632.961 -435.451 3895.42) (-452.066 192.617 7726.26) (-251.728 793.973 5389.38) (-351.824 -200.212 5659.59) (224.545 -492.225 5195.01) (-10.067 -128.162 5574.57)
1650          (-2738.39 -209.568 5892.51) (-2414.29 -320.405 6471.21) (336.253 1121.34 8125.17) (-219.935 2089.61 4801.75) (-336.179 -829.338 8541.3) (-640.962 -440.045 3828.91) (-459.244 194.899 7746.13) (-255.865 809.093 5410.26) (-358.869 -204.518 5733.76) (229.443 -502.88 5308.54) (-9.62755 -130.492 5739.09)
1700          (-2741.87 -210.117 5801.02) (-2420.16 -320.944 6383.87) (336.962 1125.35 8049.01) (-220.859 2101.16 4722.42) (-339.173 -835.318 8506.58) (-648 -444.092 3771.34) (-465.544 196.905 7764.67) (-259.49 822.296 5429.69) (-365.014 -208.268 5799.38) (233.699 -512.135 5407.83) (-9.24974 -132.512 5882.06)
1750          (-2744.94 -210.602 5720.41) (-2425.33 -321.42 6306.97) (337.587 1128.89 7982.14) (-221.673 2111.33 4653) (-341.801 -840.575 8476.64) (-654.17 -447.642 3721.59) (-471.055 198.663 7781.7) (-262.659 833.795 5447.5) (-370.362 -211.529 5857.17) (237.391 -520.16 5494.43) (-8.92528 -134.261 6006.06)
1800          (-2747.64 -211.039 5649.69) (-2429.88 -321.845 6239.56) (338.119 1131.98 7923.63) (-222.404 2120.2 4592.48) (-344.087 -845.14 8450.76) (-659.548 -450.73 3678.63) (-475.852 200.215 7797.08) (-265.417 843.774 5463.7) (-374.984 -214.336 5907.83) (240.578 -527.073 5569.84) (-8.62184 -135.743 6113.44)
1850          (-2750 -211.41 5587.81) (-2433.86 -322.21 6180.59) (338.599 1134.7 7872.58) (-223.028 2127.99 4539.74) (-346.095 -849.168 8428.56) (-664.247 -453.44 3641.58) (-480.037 201.552 7810.99) (-267.818 852.448 5478.17) (-379.013 -216.79 5952.15) (243.347 -533.086 5635.28) (-8.38659 -137.053 6206.33)
1900          (-2752.06 -211.733 5533.82) (-2437.33 -322.529 6129.17) (339.018 1137.07 7828.15) (-223.571 2134.79 4493.93) (-347.844 -852.677 8409.47) (-668.333 -455.798 3609.66) (-483.671 202.713 7823.4) (-269.903 859.96 5491.07) (-382.502 -218.913 5990.79) (245.739 -538.279 5692) (-8.18433 -138.184 6286.58)
1950          (-2753.85 -212.015 5486.83) (-2440.36 -322.807 6084.44) (339.382 1139.14 7789.56) (-224.044 2140.7 4454.22) (-349.363 -855.728 8393.05) (-671.879 -457.846 3582.19) (-486.822 203.721 7834.42) (-271.709 866.458 5502.48) (-385.517 -220.748 6024.4) (247.804 -542.761 5741.09) (-8.01074 -139.159 6355.85)
2000          (-2755.41 -212.26 5446.01) (-2442.99 -323.049 6045.61) (339.698 1140.93 7756.11) (-224.455 2145.83 4419.84) (-350.68 -858.375 8378.95) (-674.952 -459.621 3558.54) (-489.549 204.594 7844.12) (-273.271 872.072 5512.53) (-388.122 -222.332 6053.56) (249.585 -546.626 5783.54) (-7.86175 -140 6415.59)
2050          (-2756.77 -212.473 5410.63) (-2445.27 -323.258 6011.95) (339.972 1142.49 7727.14) (-224.812 2150.28 4390.11) (-351.82 -860.667 8366.83) (-677.61 -461.157 3538.2) (-491.906 205.349 7852.65) (-274.622 876.917 5521.34) (-390.369 -223.698 6078.83) (251.121 -549.956 5820.19) (-7.73386 -140.723 6467.08)
2100          (-2757.94 -212.656 5380.01) (-2447.24 -323.44 5982.82) (340.209 1143.84 7702.11) (-225.12 2154.13 4364.44) (-352.805 -862.65 8356.41) (-679.906 -462.485 3520.7) (-493.942 206.001 7860.1) (-275.787 881.096 5529.04) (-392.307 -224.875 6100.69) (252.443 -552.824 5851.81) (-7.62407 -141.346 6511.43)
2150          (-2758.95 -212.815 5353.54) (-2448.95 -323.597 5957.65) (340.413 1145 7680.48) (-225.387 2157.45 4342.29) (-353.657 -864.363 8347.47) (-681.889 -463.632 3505.66) (-495.698 206.564 7866.6) (-276.793 884.697 5535.74) (-393.976 -225.89 6119.57) (253.582 -555.293 5879.07) (-7.52982 -141.883 6549.61)
2200          (-2759.83 -212.953 5330.68) (-2450.43 -323.732 5935.92) (340.59 1146.01 7661.83) (-225.617 2160.32 4323.2) (-354.391 -865.842 8339.78) (-683.598 -464.621 3492.73) (-497.212 207.05 7872.25) (-277.659 887.799 5541.57) (-395.414 -226.763 6135.88) (254.561 -557.418 5902.56) (-7.44891 -142.344 6582.46)
2250          (-2760.58 -213.069 5310.97) (-2451.71 -323.85 5917.18) (340.748 1146.88 7645.78) (-225.818 2162.82 4306.69) (-355.025 -867.125 8333.27) (-685.1 -465.498 3481.47) (-498.528 207.47 7877.26) (-278.427 890.473 5546.55) (-396.672 -227.536 6149.94) (255.408 -559.282 5922.75) (-7.38185 -142.753 6610.76)
2300          (-2761.23 -213.173 5293.98) (-2452.8 -323.951 5901.05) (340.885 1147.63 7631.93) (-225.974 2164.96 4292.54) (-355.575 -868.236 8327.59) (-686.358 -466.229 3471.95) (-499.644 207.818 7881.48) (-279.055 892.768 5550.92) (-397.735 -228.183 6162.06) (256.135 -560.846 5940.15) (-7.33117 -143.099 6635.05)
2350          (-2761.79 -213.26 5279.35) (-2453.74 -324.036 5887.14) (340.985 1148.27 7620) (-226.141 2166.76 4280.42) (-356.038 -869.152 8322.65) (-687.436 -466.84 3463.83) (-500.606 208.141 7885.05) (-279.607 894.735 5554.77) (-398.629 -228.713 6172.46) (256.755 -562.16 5955.16) (-7.26472 -143.371 6655.91)
2400          (-2762.28 -213.333 5266.75) (-2454.57 -324.109 5875.17) (341.098 1148.84 7609.75) (-226.249 2168.4 4269.89) (-356.453 -870.008 8318.54) (-688.389 -467.398 3456.74) (-501.453 208.399 7888.29) (-280.088 896.468 5557.97) (-399.441 -229.213 6181.46) (257.302 -563.364 5967.98) (-7.24752 -143.655 6673.88)
2450          (-2762.69 -213.4 5255.96) (-2455.25 -324.172 5864.94) (341.172 1149.3 7600.88) (-226.358 2169.72 4260.99) (-356.796 -870.686 8314.85) (-689.176 -467.853 3450.8) (-502.149 208.623 7890.92) (-280.479 897.894 5560.87) (-400.095 -229.608 6189.12) (257.754 -564.318 5979.09) (-7.19791 -143.85 6689.24)
2500          (-2763.05 -213.452 5246.68) (-2455.86 -324.226 5856.15) (341.242 1149.71 7593.29) (-226.46 2170.9 4253.26) (-357.094 -871.288 8311.82) (-689.886 -468.261 3445.6) (-502.777 208.83 7893.31) (-280.844 899.162 5563.25) (-400.687 -229.971 6195.74) (258.145 -565.204 5988.54) (-7.16384 -144.042 6702.46)
2550          (-2763.35 -213.505 5238.72) (-2456.36 -324.276 5848.55) (341.305 1150.06 7586.86) (-226.536 2171.88 4246.64) (-357.343 -871.789 8309.19) (-690.464 -468.598 3441.15) (-503.283 208.992 7895.3) (-281.133 900.214 5565.32) (-401.172 -230.26 6201.39) (258.483 -565.904 5996.67) (-7.1356 -144.193 6713.77)
2600          (-2763.61 -213.546 5231.88) (-2456.8 -324.318 5842.05) (341.358 1150.37 7581.34) (-226.608 2172.74 4240.94) (-357.557 -872.225 8307.02) (-690.983 -468.9 3437.25) (-503.732 209.143 7897.09) (-281.394 901.14 5567.08) (-401.606 -230.524 6206.23) (258.772 -566.537 6003.62) (-7.11028 -144.33 6723.49)
2650          (-2763.83 -213.583 5225.98) (-2457.18 -324.354 5836.44) (341.403 1150.62 7576.57) (-226.667 2173.48 4236.07) (-357.746 -872.605 8305.07) (-691.419 -469.152 3434) (-504.12 209.268 7898.56) (-281.614 901.929 5568.62) (-401.971 -230.746 6210.42) (259.02 -567.077 6009.59) (-7.08877 -144.446 6731.84)
2700          (-2764.04 -213.628 5220.91) (-2457.51 -324.39 5831.63) (341.44 1150.84 7572.46) (-226.721 2174.09 4231.88) (-357.906 -872.924 8303.37) (-691.778 -469.357 3431.23) (-504.448 209.373 7899.81) (-281.819 902.572 5569.94) (-402.262 -230.92 6214.04) (259.244 -567.515 6014.75) (-7.07141 -144.541 6739.01)
2750          (-2764.2 -213.641 5216.67) (-2457.78 -324.409 5827.58) (341.474 1151.03 7568.99) (-226.764 2174.64 4228.33) (-358.047 -873.206 8301.93) (-692.106 -469.545 3428.85) (-504.739 209.463 7900.87) (-281.972 903.174 5571.02) (-402.541 -231.091 6217.08) (259.418 -567.926 6019.1) (-7.05559 -144.629 6745.1)
2800          (-2764.33 -213.647 5213.04) (-2458.02 -324.429 5824.11) (341.497 1151.18 7565.99) (-226.806 2175.08 4225.23) (-358.165 -873.447 8300.72) (-692.385 -469.712 3426.83) (-504.977 209.537 7901.78) (-282.094 903.675 5571.96) (-402.773 -231.239 6219.74) (259.552 -568.291 6022.8) (-7.0288 -144.694 6750.32)
2850          (-2764.45 -213.68 5209.87) (-2458.22 -324.45 5821.12) (341.525 1151.33 7563.45) (-226.831 2175.49 4222.68) (-358.264 -873.647 8299.68) (-692.615 -469.843 3425.04) (-505.184 209.607 7902.59) (-282.223 904.091 5572.79) (-402.968 -231.353 6221.92) (259.703 -568.554 6026.05) (-7.03002 -144.763 6754.79)
2900          (-2764.56 -213.686 5207.21) (-2458.4 -324.461 5818.57) (341.546 1151.44 7561.24) (-226.863 2175.82 4220.38) (-358.354 -873.826 8298.78) (-692.81 -469.952 3423.62) (-505.37 209.658 7903.23) (-282.326 904.456 5573.47) (-403.131 -231.451 6223.9) (259.814 -568.815 6028.75) (-7.02222 -144.82 6758.61)
2950          (-2764.66 -213.709 5204.96) (-2458.56 -324.479 5816.45) (341.565 1151.55 7559.43) (-226.885 2176.11 4218.52) (-358.424 -873.971 8298.08) (-692.984 -470.051 3422.33) (-505.523 209.71 7903.83) (-282.417 904.767 5574.04) (-403.276 -231.539 6225.48) (259.914 -569.028 6031.03) (-7.01536 -144.869 6761.79)
3000          (-2764.72 -213.711 5203.02) (-2458.67 -324.484 5814.6) (341.577 1151.63 7557.84) (-226.909 2176.36 4216.92) (-358.49 -874.098 8297.4) (-693.125 -470.129 3421.27) (-505.653 209.753 7904.29) (-282.489 905.034 5574.57) (-403.394 -231.606 6226.86) (259.999 -569.197 6033.04) (-7.00896 -144.906 6764.56)
3050          (-2764.79 -213.722 5201.24) (-2458.79 -324.496 5812.9) (341.592 1151.71 7556.38) (-226.925 2176.57 4215.41) (-358.545 -874.21 8296.82) (-693.258 -470.211 3420.28) (-505.764 209.784 7904.74) (-282.552 905.262 5575.02) (-403.504 -231.677 6228.15) (260.068 -569.363 6034.85) (-7.00079 -144.939 6767.1)
3100          (-2764.85 -213.738 5199.8) (-2458.88 -324.509 5811.55) (341.606 1151.78 7555.25) (-226.935 2176.77 4214.27) (-358.589 -874.304 8296.37) (-693.373 -470.278 3419.43) (-505.862 209.823 7905.16) (-282.611 905.465 5575.38) (-403.604 -231.74 6229.12) (260.131 -569.505 6036.29) (-6.99712 -144.972 6769.13)
3150          (-2764.89 -213.745 5198.67) (-2458.96 -324.517 5810.47) (341.615 1151.83 7554.34) (-226.946 2176.91 4213.33) (-358.625 -874.375 8296) (-693.461 -470.329 3418.77) (-505.934 209.847 7905.44) (-282.653 905.618 5575.67) (-403.677 -231.783 6229.91) (260.178 -569.611 6037.45) (-6.99183 -144.994 6770.75)
3200          (-2764.92 -213.748 5197.6) (-2459.01 -324.519 5809.45) (341.618 1151.87 7553.41) (-226.956 2177.03 4212.43) (-358.66 -874.443 8295.6) (-693.525 -470.368 3418.22) (-505.998 209.863 7905.66) (-282.685 905.741 5575.97) (-403.729 -231.817 6230.7) (260.223 -569.686 6038.59) (-6.9877 -145.009 6772.3)
3250          (-2764.96 -213.753 5196.67) (-2459.07 -324.524 5808.58) (341.625 1151.91 7552.65) (-226.966 2177.14 4211.65) (-358.689 -874.503 8295.3) (-693.594 -470.407 3417.7) (-506.06 209.883 7905.89) (-282.72 905.866 5576.21) (-403.787 -231.852 6231.36) (260.261 -569.772 6039.53) (-6.98436 -145.027 6773.61)
3300          (-2765 -213.763 5195.89) (-2459.13 -324.533 5807.82) (341.637 1151.95 7552.1) (-226.971 2177.25 4211.05) (-358.713 -874.551 8295.06) (-693.662 -470.447 3417.25) (-506.11 209.903 7906.13) (-282.752 905.986 5576.4) (-403.845 -231.884 6231.88) (260.295 -569.854 6040.28) (-6.98261 -145.047 6774.69)
3350          (-2765.02 -213.768 5195.28) (-2459.16 -324.537 5807.24) (341.634 1151.97 7551.56) (-226.979 2177.3 4210.55) (-358.73 -874.58 8294.79) (-693.691 -470.461 3416.96) (-506.143 209.914 7906.21) (-282.765 906.047 5576.59) (-403.866 -231.897 6232.33) (260.317 -569.885 6040.94) (-6.97128 -145.045 6775.59)
3400          (-2765.05 -213.778 5194.66) (-2459.21 -324.543 5806.66) (341.642 1152 7551.03) (-226.983 2177.4 4209.99) (-358.754 -874.635 8294.63) (-693.739 -470.49 3416.58) (-506.19 209.924 7906.38) (-282.797 906.137 5576.72) (-403.908 -231.922 6232.78) (260.357 -569.95 6041.59) (-6.97907 -145.068 6776.47)
3450          (-2765.07 -213.786 5194.24) (-2459.24 -324.548 5806.27) (341.648 1152.02 7550.71) (-226.985 2177.45 4209.65) (-358.763 -874.657 8294.5) (-693.772 -470.509 3416.34) (-506.22 209.933 7906.51) (-282.818 906.192 5576.82) (-403.936 -231.939 6233.07) (260.376 -569.989 6042) (-6.98107 -145.08 6777.06)
3500          (-2765.09 -213.782 5193.84) (-2459.29 -324.549 5805.89) (341.657 1152.06 7550.39) (-226.987 2177.56 4209.27) (-358.785 -874.706 8294.42) (-693.832 -470.539 3416.04) (-506.276 209.951 7906.66) (-282.842 906.312 5576.88) (-403.995 -231.974 6233.37) (260.397 -570.082 6042.39) (-6.98808 -145.109 6777.67)
3550          (-2765.09 -213.779 5193.47) (-2459.28 -324.547 5805.52) (341.649 1152.05 7550.07) (-227 2177.54 4209.01) (-358.787 -874.7 8294.21) (-693.832 -470.541 3415.91) (-506.271 209.955 7906.67) (-282.842 906.304 5577.04) (-403.986 -231.969 6233.62) (260.398 -570.064 6042.81) (-6.96975 -145.087 6778.21)
3600          (-2765.1 -213.777 5193.21) (-2459.3 -324.546 5805.28) (341.654 1152.07 7549.85) (-226.998 2177.59 4208.78) (-358.802 -874.732 8294.12) (-693.858 -470.554 3415.73) (-506.298 209.959 7906.73) (-282.851 906.365 5577.08) (-404.014 -231.985 6233.81) (260.416 -570.104 6043.09) (-6.9768 -145.104 6778.62)
3650          (-2765.1 -213.781 5193.08) (-2459.31 -324.551 5805.16) (341.653 1152.07 7549.75) (-227.004 2177.59 4208.65) (-358.802 -874.729 8294.08) (-693.869 -470.565 3415.63) (-506.3 209.962 7906.78) (-282.862 906.357 5577.09) (-404.017 -231.993 6233.9) (260.415 -570.115 6043.22) (-6.96633 -145.098 6778.83)
3700          (-2765.11 -213.78 5192.95) (-2459.32 -324.549 5805.03) (341.657 1152.08 7549.65) (-226.997 2177.63 4208.55) (-358.813 -874.752 8294.03) (-693.88 -470.57 3415.55) (-506.314 209.961 7906.79) (-282.859 906.4 5577.12) (-404.033 -231.999 6233.99) (260.429 -570.13 6043.37) (-6.97472 -145.11 6779.03)
3750          (-2765.11 -213.781 5192.83) (-2459.33 -324.551 5804.92) (341.654 1152.08 7549.54) (-227.009 2177.63 4208.43) (-358.81 -874.746 8293.99) (-693.891 -470.576 3415.46) (-506.321 209.97 7906.83) (-282.875 906.397 5577.13) (-404.035 -232.004 6234.08) (260.427 -570.146 6043.49) (-6.96419 -145.104 6779.24)
3800          (-2765.12 -213.783 5192.71) (-2459.33 -324.551 5804.79) (341.657 1152.09 7549.44) (-227 2177.65 4208.33) (-358.818 -874.762 8293.92) (-693.895 -470.58 3415.4) (-506.325 209.964 7906.83) (-282.867 906.421 5577.17) (-404.044 -232.008 6234.16) (260.438 -570.147 6043.64) (-6.97021 -145.111 6779.45)
3850          (-2765.12 -213.783 5192.71) (-2459.33 -324.551 5804.79) (341.657 1152.09 7549.44) (-227 2177.65 4208.33) (-358.818 -874.762 8293.92) (-693.895 -470.58 3415.4) (-506.325 209.964 7906.83) (-282.867 906.421 5577.17) (-404.044 -232.008 6234.16) (260.438 -570.147 6043.64) (-6.97021 -145.111 6779.45)
3900          (-2765.12 -213.783 5192.71) (-2459.33 -324.551 5804.79) (341.657 1152.09 7549.44) (-227 2177.65 4208.33) (-358.818 -874.762 8293.92) (-693.895 -470.58 3415.4) (-506.325 209.964 7906.83) (-282.867 906.421 5577.17) (-404.044 -232.008 6234.16) (260.438 -570.147 6043.64) (-6.97021 -145.111 6779.45)
3950          (-2765.12 -213.783 5192.71) (-2459.33 -324.551 5804.79) (341.657 1152.09 7549.44) (-227 2177.65 4208.33) (-358.818 -874.762 8293.92) (-693.895 -470.58 3415.4) (-506.325 209.964 7906.83) (-282.867 906.421 5577.17) (-404.044 -232.008 6234.16) (260.438 -570.147 6043.64) (-6.97021 -145.111 6779.45)
4000          (-2765.12 -213.783 5192.71) (-2459.33 -324.551 5804.79) (341.657 1152.09 7549.44) (-227 2177.65 4208.33) (-358.818 -874.762 8293.92) (-693.895 -470.58 3415.4) (-506.325 209.964 7906.83) (-282.867 906.421 5577.17) (-404.044 -232.008 6234.16) (260.438 -570.147 6043.64) (-6.97021 -145.111 6779.45)
4050          (-2765.12 -213.783 5192.71) (-2459.33 -324.551 5804.79) (341.657 1152.09 7549.44) (-227 2177.65 4208.33) (-358.818 -874.762 8293.92) (-693.895 -470.58 3415.4) (-506.325 209.964 7906.83) (-282.867 906.421 5577.17) (-404.044 -232.008 6234.16) (260.438 -570.147 6043.64) (-6.97021 -145.111 6779.45)
4100          (-2765.12 -213.783 5192.71) (-2459.33 -324.551 5804.79) (341.657 1152.09 7549.44) (-227 2177.65 4208.33) (-358.818 -874.762 8293.92) (-693.895 -470.58 3415.4) (-506.325 209.964 7906.83) (-282.867 906.421 5577.17) (-404.044 -232.008 6234.16) (260.438 -570.147 6043.64) (-6.97021 -145.111 6779.45)
4150          (-2765.12 -213.783 5192.71) (-2459.33 -324.551 5804.79) (341.657 1152.09 7549.44) (-227 2177.65 4208.33) (-358.818 -874.762 8293.92) (-693.895 -470.58 3415.4) (-506.325 209.964 7906.83) (-282.867 906.421 5577.17) (-404.044 -232.008 6234.16) (260.438 -570.147 6043.64) (-6.97021 -145.111 6779.45)
4200          (-2765.12 -213.783 5192.71) (-2459.33 -324.551 5804.79) (341.657 1152.09 7549.44) (-227 2177.65 4208.33) (-358.818 -874.762 8293.92) (-693.895 -470.58 3415.4) (-506.325 209.964 7906.83) (-282.867 906.421 5577.17) (-404.044 -232.008 6234.16) (260.438 -570.147 6043.64) (-6.97021 -145.111 6779.45)
4250          (-2765.12 -213.783 5192.71) (-2459.33 -324.551 5804.79) (341.657 1152.09 7549.44) (-227 2177.65 4208.33) (-358.818 -874.762 8293.92) (-693.895 -470.58 3415.4) (-506.325 209.964 7906.83) (-282.867 906.421 5577.17) (-404.044 -232.008 6234.16) (260.438 -570.147 6043.64) (-6.97021 -145.111 6779.45)
4300          (-2765.12 -213.783 5192.71) (-2459.33 -324.551 5804.79) (341.657 1152.09 7549.44) (-227 2177.65 4208.33) (-358.818 -874.762 8293.92) (-693.895 -470.58 3415.4) (-506.325 209.964 7906.83) (-282.867 906.421 5577.17) (-404.044 -232.008 6234.16) (260.438 -570.147 6043.64) (-6.97021 -145.111 6779.45)
4350          (-2765.12 -213.783 5192.71) (-2459.33 -324.551 5804.79) (341.657 1152.09 7549.44) (-227 2177.65 4208.33) (-358.818 -874.762 8293.92) (-693.895 -470.58 3415.4) (-506.325 209.964 7906.83) (-282.867 906.421 5577.17) (-404.044 -232.008 6234.16) (260.438 -570.147 6043.64) (-6.97021 -145.111 6779.45)
4400          (-2765.12 -213.783 5192.71) (-2459.33 -324.551 5804.79) (341.657 1152.09 7549.44) (-227 2177.65 4208.33) (-358.818 -874.762 8293.92) (-693.895 -470.58 3415.4) (-506.325 209.964 7906.83) (-282.867 906.421 5577.17) (-404.044 -232.008 6234.16) (260.438 -570.147 6043.64) (-6.97021 -145.111 6779.45)
4450          (-2765.12 -213.783 5192.71) (-2459.33 -324.551 5804.79) (341.657 1152.09 7549.44) (-227 2177.65 4208.33) (-358.818 -874.762 8293.92) (-693.895 -470.58 3415.4) (-506.325 209.964 7906.83) (-282.867 906.421 5577.17) (-404.044 -232.008 6234.16) (260.438 -570.147 6043.64) (-6.97021 -145.111 6779.45)
4500          (-2765.12 -213.783 5192.71) (-2459.33 -324.551 5804.79) (341.657 1152.09 7549.44) (-227 2177.65 4208.33) (-358.818 -874.762 8293.92) (-693.895 -470.58 3415.4) (-506.325 209.964 7906.83) (-282.867 906.421 5577.17) (-404.044 -232.008 6234.16) (260.438 -570.147 6043.64) (-6.97021 -145.111 6779.45)
4550          (-2765.12 -213.783 5192.71) (-2459.33 -324.551 5804.79) (341.657 1152.09 7549.44) (-227 2177.65 4208.33) (-358.818 -874.762 8293.92) (-693.895 -470.58 3415.4) (-506.325 209.964 7906.83) (-282.867 906.421 5577.17) (-404.044 -232.008 6234.16) (260.438 -570.147 6043.64) (-6.97021 -145.111 6779.45)
4600          (-2765.12 -213.783 5192.71) (-2459.33 -324.551 5804.79) (341.657 1152.09 7549.44) (-227 2177.65 4208.33) (-358.818 -874.762 8293.92) (-693.895 -470.58 3415.4) (-506.325 209.964 7906.83) (-282.867 906.421 5577.17) (-404.044 -232.008 6234.16) (260.438 -570.147 6043.64) (-6.97021 -145.111 6779.45)
4650          (-2765.12 -213.783 5192.71) (-2459.33 -324.551 5804.79) (341.657 1152.09 7549.44) (-227 2177.65 4208.33) (-358.818 -874.762 8293.92) (-693.895 -470.58 3415.4) (-506.325 209.964 7906.83) (-282.867 906.421 5577.17) (-404.044 -232.008 6234.16) (260.438 -570.147 6043.64) (-6.97021 -145.111 6779.45)
4700          (-2765.12 -213.783 5192.71) (-2459.33 -324.551 5804.79) (341.657 1152.09 7549.44) (-227 2177.65 4208.33) (-358.818 -874.762 8293.92) (-693.895 -470.58 3415.4) (-506.325 209.964 7906.83) (-282.867 906.421 5577.17) (-404.044 -232.008 6234.16) (260.438 -570.147 6043.64) (-6.97021 -145.111 6779.45)