# Probe 0 (0.0015 0.0015 0)
# Probe 1 (0.0015 0.0015 0.002)
# Probe 2 (0.0015 0.0015 0.004)
# Probe 3 (0.0015 0.0015 0.006)
# Probe 4 (0.0015 0.0015 0.008)
# Probe 5 (0.0015 0.0015 0.01)
# Probe 6 (0.0015 0.0015 0.012)
# Probe 7 (0.0015 0.0015 0.014)
# Probe 8 (0.0015 0.0015 0.016)
# Probe 9 (0.0015 0.0015 0.018)
# Probe 10 (0.0015 0.0015 0.02)
# Time        0             1             2             3             4             5             6             7             8             9             10           
50            (1.06178e-09 -1.46951e-09 -2.07147e-10) (3.47235e-09 -4.17752e-09 2.03454e-10) (7.93623e-09 -8.83611e-09 3.41138e-10) (1.25867e-08 -1.33582e-08 1.72475e-10) (1.53063e-08 -1.63629e-08 7.69674e-10) (1.71061e-08 -1.84212e-08 9.56389e-10) (1.75458e-08 -1.9912e-08 6.94231e-10) (1.68649e-08 -2.09337e-08 8.97992e-10) (1.6979e-08 -2.14877e-08 -7.24609e-11) (1.63248e-08 -2.23319e-08 3.62754e-10) (1.69312e-08 -2.28058e-08 4.78091e-11)
100           (1.7789e-09 -1.48598e-09 1.28205e-10) (4.35243e-09 -3.9702e-09 3.94221e-10) (9.57188e-09 -1.01441e-08 3.5669e-10) (1.47581e-08 -1.59748e-08 -6.15291e-10) (1.81101e-08 -1.96342e-08 8.18794e-10) (1.99656e-08 -2.17387e-08 -6.79358e-10) (2.1315e-08 -2.428e-08 -1.53872e-09) (2.099e-08 -2.56604e-08 -2.19167e-09) (2.10009e-08 -2.66998e-08 -2.09253e-09) (2.12734e-08 -2.71168e-08 -2.66877e-09) (2.08291e-08 -2.74224e-08 -2.5293e-09)
150           (1.20161e-09 -1.48298e-09 -2.02337e-11) (4.05911e-09 -4.8101e-09 -1.0239e-10) (1.00152e-08 -1.04949e-08 -2.33474e-10) (1.47911e-08 -1.63395e-08 -7.55882e-10) (1.81996e-08 -2.04259e-08 -9.93963e-10) (2.00397e-08 -2.27512e-08 -8.22361e-10) (2.14984e-08 -2.52773e-08 -1.14829e-09) (2.17713e-08 -2.67923e-08 -1.27354e-09) (2.21517e-08 -2.7648e-08 -8.80916e-10) (2.19243e-08 -2.84979e-08 -1.61936e-09) (2.20622e-08 -2.87361e-08 -9.89905e-10)
200           (1.04712e-09 -1.46101e-09 1.00384e-10) (3.91309e-09 -4.78281e-09 9.88544e-11) (9.56649e-09 -1.08182e-08 5.50225e-11) (1.48506e-08 -1.66304e-08 9.44022e-10) (1.84617e-08 -2.10738e-08 -2.23526e-10) (2.05723e-08 -2.36114e-08 1.05311e-09) (2.17264e-08 -2.56816e-08 1.47238e-09) (2.24092e-08 -2.64237e-08 2.28637e-09) (2.25448e-08 -2.76187e-08 1.90325e-09) (2.2737e-08 -2.88514e-08 2.2279e-09) (2.1403e-08 -2.92578e-08 2.56341e-09)
250           (1.64983e-09 -1.46735e-09 -4.2766e-10) (3.68043e-09 -4.37851e-09 -1.40684e-10) (9.51028e-09 -1.04349e-08 8.25444e-10) (1.48488e-08 -1.65226e-08 5.36871e-10) (1.84861e-08 -2.02595e-08 -3.62103e-10) (2.05338e-08 -2.28194e-08 2.3703e-11) (2.17013e-08 -2.54546e-08 1.93666e-10) (2.19132e-08 -2.68912e-08 4.24886e-11) (2.19523e-08 -2.82284e-08 1.7413e-09) (2.20795e-08 -2.92698e-08 1.55999e-10) (2.23862e-08 -2.93785e-08 1.69311e-09)
300           (1.74385e-09 -1.41057e-09 4.53749e-10) (3.81782e-09 -4.47962e-09 3.89131e-10) (9.91636e-09 -1.05777e-08 7.34928e-11) (1.45658e-08 -1.67044e-08 6.98932e-10) (1.8408e-08 -1.96806e-08 2.53239e-11) (2.01467e-08 -2.30075e-08 -1.25967e-09) (2.15617e-08 -2.48144e-08 -6.02589e-11) (2.19489e-08 -2.69828e-08 -7.66334e-10) (2.22023e-08 -2.7638e-08 -7.40193e-10) (2.2045e-08 -2.87565e-08 -7.87794e-10) (2.17385e-08 -2.93862e-08 -1.22595e-09)
350           (1.43465e-09 -1.69565e-09 5.6615e-10) (4.57048e-09 -4.59546e-09 5.05127e-10) (1.00163e-08 -1.09673e-08 -2.49355e-10) (1.49991e-08 -1.60862e-08 -4.85382e-10) (1.90587e-08 -2.023e-08 -9.61948e-11) (2.09027e-08 -2.31483e-08 6.05162e-10) (2.27827e-08 -2.56741e-08 5.38667e-10) (2.27446e-08 -2.65967e-08 -2.98352e-10) (2.20159e-08 -2.86701e-08 -3.69293e-10) (2.19126e-08 -2.87485e-08 -5.85572e-10) (2.25446e-08 -2.92462e-08 1.02276e-09)
400           (1.40492e-09 -1.65253e-09 2.6535e-10) (4.57093e-09 -4.24175e-09 7.18954e-11) (1.00525e-08 -1.09597e-08 -4.77688e-11) (1.55231e-08 -1.67364e-08 -4.39682e-10) (1.85576e-08 -2.09751e-08 -5.98095e-10) (2.08498e-08 -2.34483e-08 -9.69304e-10) (2.22887e-08 -2.54635e-08 -8.24789e-10) (2.26374e-08 -2.67538e-08 -3.30456e-10) (2.27475e-08 -2.82845e-08 -4.98447e-11) (2.3222e-08 -2.90204e-08 -1.54914e-10) (2.26614e-08 -2.84634e-08 -1.35251e-09)
450           (1.68693e-09 -1.69974e-09 -4.12162e-11) (4.42302e-09 -4.5601e-09 2.72637e-10) (1.01185e-08 -1.06398e-08 -7.06436e-10) (1.51726e-08 -1.62662e-08 -1.64704e-10) (1.82841e-08 -2.01452e-08 -2.40017e-10) (2.05335e-08 -2.29296e-08 5.5756e-10) (2.1938e-08 -2.47313e-08 8.23408e-11) (2.21992e-08 -2.65914e-08 5.96397e-10) (2.22773e-08 -2.77659e-08 -1.53155e-10) (2.18738e-08 -2.83276e-08 1.82526e-10) (2.16443e-08 -2.9004e-08 -1.78609e-10)
500           (1.17167e-09 -1.83702e-09 9.70997e-11) (4.27761e-09 -4.29922e-09 4.54134e-10) (9.65518e-09 -1.09848e-08 1.46931e-09) (1.51988e-08 -1.65891e-08 1.97419e-09) (1.87773e-08 -2.0535e-08 1.68145e-09) (2.10656e-08 -2.35701e-08 2.46222e-09) (2.20035e-08 -2.57218e-08 1.76105e-09) (2.23609e-08 -2.70817e-08 1.95777e-09) (2.18451e-08 -2.80643e-08 2.2195e-09) (2.23658e-08 -2.92094e-08 2.93298e-09) (2.26253e-08 -2.8832e-08 2.92712e-09)
550           (1.39627e-09 -1.81873e-09 2.44504e-10) (4.03805e-09 -4.63879e-09 1.25433e-10) (9.86887e-09 -1.08718e-08 3.49272e-10) (1.4879e-08 -1.63439e-08 3.07788e-10) (1.86588e-08 -2.0462e-08 9.41633e-11) (2.11307e-08 -2.30673e-08 -5.09347e-10) (2.22917e-08 -2.5101e-08 -1.49854e-09) (2.26566e-08 -2.72202e-08 -8.2302e-10) (2.27185e-08 -2.78832e-08 -1.68479e-09) (2.21802e-08 -2.93008e-08 -1.23763e-09) (2.18972e-08 -2.87951e-08 -6.42276e-10)
600           (1.07114e-09 -1.3395e-09 9.57458e-11) (3.51248e-09 -4.48587e-09 -3.13716e-11) (9.50066e-09 -1.07298e-08 1.5249e-10) (1.57523e-08 -1.65984e-08 1.18202e-10) (1.82438e-08 -2.03412e-08 -2.99226e-10) (2.09255e-08 -2.29415e-08 -2.99547e-10) (2.25039e-08 -2.4985e-08 -5.21673e-10) (2.25591e-08 -2.67785e-08 5.97428e-10) (2.26418e-08 -2.79438e-08 5.93346e-10) (2.24196e-08 -2.87614e-08 2.07542e-10) (2.25129e-08 -2.86393e-08 1.16093e-09)
650           (1.18801e-09 -1.53706e-09 1.70824e-10) (3.96123e-09 -4.65325e-09 -4.94231e-11) (9.08492e-09 -1.04453e-08 2.99178e-10) (1.36589e-08 -1.56447e-08 1.60968e-09) (1.81868e-08 -1.98925e-08 3.53806e-10) (2.0184e-08 -2.26641e-08 1.91091e-09) (2.18757e-08 -2.48505e-08 1.23487e-09) (2.21984e-08 -2.65629e-08 1.36125e-09) (2.21184e-08 -2.826e-08 1.35484e-09) (2.17817e-08 -2.88005e-08 9.13066e-10) (2.18978e-08 -2.91066e-08 1.05809e-09)
700           (1.63045e-09 -1.53441e-09 1.06432e-10) (3.88547e-09 -4.41845e-09 6.11378e-10) (9.65481e-09 -1.09425e-08 4.92294e-10) (1.47187e-08 -1.64975e-08 5.93266e-10) (1.86709e-08 -1.99178e-08 1.20487e-09) (2.091e-08 -2.23461e-08 1.27528e-09) (2.17169e-08 -2.51694e-08 7.10571e-10) (2.20717e-08 -2.65186e-08 -3.08301e-10) (2.20609e-08 -2.8001e-08 -6.19074e-10) (2.23238e-08 -2.87468e-08 -2.9847e-11) (2.22145e-08 -2.83085e-08 -4.60803e-10)
750           (1.63638e-09 -1.59239e-09 -3.01671e-10) (4.12724e-09 -4.91231e-09 -3.01486e-10) (1.0064e-08 -1.10196e-08 3.36035e-10) (1.53189e-08 -1.66247e-08 4.46039e-10) (1.90434e-08 -2.1061e-08 -4.77316e-10) (2.11416e-08 -2.33347e-08 -5.64483e-10) (2.24671e-08 -2.53324e-08 -7.5404e-10) (2.29503e-08 -2.73013e-08 -1.02119e-09) (2.27907e-08 -2.86106e-08 -6.92229e-10) (2.28516e-08 -2.9069e-08 -2.15401e-09) (2.27515e-08 -2.96211e-08 -1.50442e-09)
800           (1.47047e-09 -1.37573e-09 -6.4491e-11) (4.26011e-09 -4.98727e-09 1.08829e-11) (9.64285e-09 -1.04006e-08 -2.37902e-10) (1.50779e-08 -1.63911e-08 8.30003e-10) (1.86907e-08 -2.00823e-08 4.03899e-10) (2.07452e-08 -2.23059e-08 -3.43698e-12) (2.21436e-08 -2.5094e-08 6.84813e-10) (2.23263e-08 -2.67805e-08 3.8028e-10) (2.2233e-08 -2.76432e-08 -2.15415e-10) (2.17801e-08 -2.89916e-08 -3.09007e-10) (2.21318e-08 -2.8735e-08 -1.47809e-10)
850           (1.22569e-09 -1.90685e-09 3.42316e-10) (4.43549e-09 -4.62427e-09 3.14509e-10) (9.69383e-09 -1.08916e-08 6.20743e-10) (1.51464e-08 -1.64785e-08 -2.00791e-10) (1.89773e-08 -2.05633e-08 -1.10802e-09) (2.12849e-08 -2.33123e-08 -3.73957e-10) (2.2325e-08 -2.58835e-08 -1.84641e-09) (2.20919e-08 -2.65426e-08 -1.96393e-09) (2.26809e-08 -2.78582e-08 -2.17029e-09) (2.23619e-08 -2.91778e-08 -2.27367e-09) (2.28092e-08 -2.92291e-08 -7.75316e-10)
900           (1.75963e-09 -1.52875e-09 -5.21586e-11) (4.2462e-09 -4.88072e-09 -4.05563e-10) (9.59314e-09 -1.08309e-08 -4.9528e-10) (1.5081e-08 -1.65769e-08 -8.02396e-10) (1.79771e-08 -2.12263e-08 -1.26835e-09) (2.08637e-08 -2.31375e-08 -1.004e-09) (2.2171e-08 -2.56029e-08 -1.49201e-09) (2.2199e-08 -2.70014e-08 -9.21035e-10) (2.23624e-08 -2.75758e-08 -9.65757e-10) (2.16604e-08 -2.89663e-08 -2.1106e-10) (2.18031e-08 -2.88172e-08 -8.59403e-10)
950           (1.53742e-09 -1.57206e-09 -4.86786e-10) (3.97742e-09 -4.38107e-09 -5.35977e-10) (9.83547e-09 -1.01966e-08 -3.90439e-10) (1.51389e-08 -1.62696e-08 -3.4172e-11) (1.86532e-08 -2.03853e-08 -1.54452e-09) (2.07494e-08 -2.2839e-08 -1.83567e-09) (2.25514e-08 -2.52096e-08 -1.58714e-09) (2.26768e-08 -2.7251e-08 -8.05583e-10) (2.2506e-08 -2.81997e-08 -1.7034e-09) (2.24218e-08 -2.92126e-08 -1.03797e-09) (2.23736e-08 -2.91805e-08 -9.48221e-10)
1000          (1.08812e-09 -1.55158e-09 1.16974e-12) (3.9966e-09 -4.84952e-09 3.9311e-11) (9.72177e-09 -1.12048e-08 -3.08947e-11) (1.51353e-08 -1.62312e-08 -8.67457e-10) (1.89933e-08 -2.08231e-08 -2.81052e-10) (2.08828e-08 -2.33446e-08 -1.05197e-10) (2.20479e-08 -2.48771e-08 -3.14518e-10) (2.25064e-08 -2.63621e-08 -6.40374e-10) (2.23053e-08 -2.75908e-08 -1.97712e-09) (2.22154e-08 -2.90326e-08 -5.89593e-10) (2.26481e-08 -2.90664e-08 -9.50784e-10)
1050          (1.32569e-09 -1.35067e-09 4.16582e-10) (4.14758e-09 -4.81165e-09 8.51745e-10) (9.36009e-09 -1.10782e-08 3.27284e-10) (1.50148e-08 -1.68489e-08 3.47191e-10) (1.82017e-08 -2.04107e-08 9.1598e-10) (2.05059e-08 -2.30618e-08 1.18054e-09) (2.21824e-08 -2.48943e-08 1.5449e-09) (2.15936e-08 -2.68317e-08 2.36844e-09) (2.20585e-08 -2.77048e-08 2.76332e-09) (2.25462e-08 -2.87335e-08 3.55308e-09) (2.26535e-08 -2.87934e-08 3.11752e-09)
1100          (1.64435e-09 -1.44046e-09 5.59241e-11) (3.91025e-09 -4.15839e-09 -1.84418e-10) (9.80811e-09 -1.06201e-08 -2.58544e-10) (1.43483e-08 -1.5814e-08 -2.25141e-10) (1.84163e-08 -2.00214e-08 7.39859e-10) (2.05541e-08 -2.31412e-08 5.95298e-10) (2.16736e-08 -2.55349e-08 1.90805e-09) (2.138e-08 -2.6977e-08 2.08777e-09) (2.21291e-08 -2.75608e-08 1.85343e-09) (2.20623e-08 -2.89597e-08 2.02354e-09) (2.26925e-08 -2.89399e-08 2.16591e-09)
1150          (1.71614e-09 -1.61476e-09 3.37922e-10) (4.49517e-09 -4.56111e-09 2.69675e-10) (9.70348e-09 -1.11969e-08 1.06241e-09) (1.52362e-08 -1.67365e-08 1.85492e-09) (1.88585e-08 -2.0516e-08 6.55649e-10) (2.14932e-08 -2.34837e-08 1.18265e-09) (2.31925e-08 -2.58415e-08 1.02325e-09) (2.2535e-08 -2.70735e-08 2.14759e-09) (2.30639e-08 -2.83312e-08 2.30126e-09) (2.27618e-08 -2.93504e-08 3.32234e-09) (2.25011e-08 -2.92397e-08 2.12725e-09)
1200          (1.79987e-09 -1.58031e-09 -3.02035e-10) (4.1776e-09 -4.83403e-09 1.28624e-10) (9.68618e-09 -1.07452e-08 1.28805e-10) (1.54358e-08 -1.64932e-08 8.09259e-10) (1.91801e-08 -2.03318e-08 -4.87853e-12) (2.07631e-08 -2.3488e-08 -1.36526e-10) (2.24179e-08 -2.5366e-08 5.92885e-11) (2.27173e-08 -2.72538e-08 6.68819e-10) (2.26273e-08 -2.85673e-08 1.36814e-09) (2.23639e-08 -2.91046e-08 8.45328e-10) (2.23799e-08 -2.96919e-08 1.18075e-09)
1250          (1.33815e-09 -1.55575e-09 1.07337e-10) (4.49958e-09 -5.12211e-09 3.48827e-10) (9.73586e-09 -1.13502e-08 9.7197e-10) (1.50078e-08 -1.67268e-08 -1.71058e-10) (1.83951e-08 -2.05518e-08 5.37977e-10) (2.13396e-08 -2.32483e-08 -2.47097e-10) (2.22113e-08 -2.51057e-08 -2.24939e-10) (2.21663e-08 -2.73181e-08 -2.55138e-10) (2.23162e-08 -2.83264e-08 4.26364e-10) (2.21068e-08 -2.8893e-08 -9.38658e-10) (2.273e-08 -2.91275e-08 -5.83537e-10)
1300          (1.30098e-09 -1.71108e-09 -4.57331e-11) (3.91149e-09 -4.5267e-09 -1.55555e-10) (9.40692e-09 -1.08281e-08 -4.82248e-10) (1.40455e-08 -1.63739e-08 6.25391e-10) (1.81519e-08 -1.9883e-08 -6.52095e-11) (2.07287e-08 -2.27949e-08 6.4181e-10) (2.19111e-08 -2.52391e-08 -1.02477e-09) (2.2229e-08 -2.70461e-08 -1.09617e-09) (2.19567e-08 -2.80565e-08 -1.04716e-09) (2.26642e-08 -2.91941e-08 -6.51151e-10) (2.20657e-08 -2.89341e-08 3.73347e-10)
1350          (1.52104e-09 -1.81517e-09 8.74838e-11) (4.59884e-09 -4.48803e-09 -4.67363e-11) (9.79959e-09 -1.0506e-08 -3.06425e-10) (1.44349e-08 -1.63524e-08 9.53267e-11) (1.82504e-08 -2.00199e-08 -2.27215e-10) (2.09257e-08 -2.28913e-08 7.71207e-11) (2.22485e-08 -2.46719e-08 -9.4385e-10) (2.22096e-08 -2.71042e-08 -1.65445e-10) (2.25897e-08 -2.80803e-08 -7.49948e-10) (2.29572e-08 -2.91949e-08 -6.40075e-10) (2.26859e-08 -2.83846e-08 -3.61511e-10)
1400          (1.69871e-09 -1.48283e-09 -1.62145e-10) (4.3708e-09 -4.80423e-09 -1.08695e-10) (9.78419e-09 -1.03224e-08 2.47921e-10) (1.48696e-08 -1.66086e-08 1.32019e-09) (1.83138e-08 -2.03115e-08 2.17112e-09) (2.00807e-08 -2.28592e-08 1.63987e-09) (2.17804e-08 -2.54819e-08 2.44169e-09) (2.20844e-08 -2.6832e-08 2.84742e-09) (2.22058e-08 -2.82922e-08 1.50449e-09) (2.22243e-08 -2.86375e-08 2.90362e-09) (2.20004e-08 -2.95879e-08 2.31102e-09)
1450          (1.37408e-09 -1.72167e-09 3.2955e-10) (4.17947e-09 -5.02603e-09 9.06563e-10) (1.02163e-08 -1.08491e-08 9.5651e-10) (1.53366e-08 -1.64899e-08 1.02138e-09) (1.84141e-08 -2.00859e-08 5.4964e-10) (2.04424e-08 -2.34067e-08 1.97831e-09) (2.22616e-08 -2.54745e-08 2.49014e-09) (2.24756e-08 -2.67284e-08 2.07355e-09) (2.23402e-08 -2.78467e-08 9.89827e-10) (2.20064e-08 -2.93318e-08 1.06187e-09) (2.25327e-08 -2.93441e-08 2.08378e-09)
1500          (1.38008e-09 -1.39008e-09 1.92688e-10) (4.9706e-09 -4.68925e-09 2.50398e-10) (9.91921e-09 -1.0874e-08 -2.31926e-11) (1.48565e-08 -1.57919e-08 -7.25124e-10) (1.83197e-08 -2.00045e-08 1.89685e-10) (2.04509e-08 -2.30266e-08 -1.00153e-09) (2.13952e-08 -2.56887e-08 -9.1422e-10) (2.22444e-08 -2.71175e-08 -3.48722e-11) (2.25414e-08 -2.85303e-08 -5.76044e-10) (2.23315e-08 -2.93337e-08 -8.98123e-10) (2.24777e-08 -2.89949e-08 -2.80808e-10)
1550          (1.38833e-09 -1.66912e-09 6.26847e-10) (3.70275e-09 -4.64486e-09 3.27165e-10) (1.03029e-08 -1.10976e-08 7.89153e-10) (1.52098e-08 -1.64928e-08 2.89473e-10) (1.87151e-08 -2.03698e-08 -5.22285e-10) (2.13792e-08 -2.30956e-08 -4.13884e-10) (2.26631e-08 -2.57723e-08 -7.49527e-10) (2.25354e-08 -2.7139e-08 -3.66217e-10) (2.27517e-08 -2.81097e-08 9.74308e-10) (2.25082e-08 -2.94106e-08 -1.44171e-10) (2.25597e-08 -2.87675e-08 -6.97633e-10)
1600          (1.54898e-09 -1.37356e-09 -4.45332e-10) (3.89896e-09 -4.60122e-09 -7.595e-10) (9.4605e-09 -1.04468e-08 2.25687e-10) (1.4807e-08 -1.589e-08 -7.25944e-10) (1.84785e-08 -1.99307e-08 -8.00637e-10) (2.06325e-08 -2.29819e-08 1.32211e-11) (2.21732e-08 -2.51551e-08 2.79073e-11) (2.20065e-08 -2.68742e-08 2.80665e-10) (2.22085e-08 -2.80438e-08 2.76765e-10) (2.2869e-08 -2.91279e-08 -1.03351e-09) (2.28739e-08 -2.93816e-08 5.37235e-10)
1650          (1.04355e-09 -2.10154e-09 4.24853e-10) (4.53336e-09 -5.28783e-09 4.89976e-10) (1.01041e-08 -1.10748e-08 -4.6133e-10) (1.57374e-08 -1.69938e-08 -7.36261e-11) (1.91499e-08 -2.04004e-08 2.18319e-10) (2.05933e-08 -2.29659e-08 5.96662e-10) (2.21828e-08 -2.50045e-08 8.91639e-10) (2.21797e-08 -2.73515e-08 1.92838e-09) (2.25095e-08 -2.84407e-08 1.76256e-09) (2.24034e-08 -2.94676e-08 1.7123e-09) (2.28661e-08 -2.85367e-08 1.08263e-09)
1700          (1.03208e-09 -1.58418e-09 -1.78768e-10) (3.7862e-09 -4.61446e-09 5.3988e-11) (9.74884e-09 -1.07393e-08 -1.04393e-09) (1.46835e-08 -1.65906e-08 -5.19525e-10) (1.8279e-08 -2.07529e-08 -8.9161e-10) (2.05428e-08 -2.30811e-08 -1.32132e-09) (2.19467e-08 -2.52997e-08 -1.9128e-09) (2.22939e-08 -2.68629e-08 -1.49182e-09) (2.20639e-08 -2.80026e-08 -1.6808e-09) (2.132e-08 -2.90131e-08 -1.66605e-09) (2.24942e-08 -2.90673e-08 -1.58796e-09)
1750          (1.41708e-09 -1.65796e-09 3.06827e-10) (4.61747e-09 -4.51847e-09 7.40948e-10) (9.7268e-09 -1.08518e-08 2.14258e-10) (1.46984e-08 -1.6353e-08 2.88693e-11) (1.89947e-08 -2.02675e-08 2.98293e-10) (2.12201e-08 -2.28922e-08 -1.00144e-10) (2.15443e-08 -2.4923e-08 -3.35803e-10) (2.29201e-08 -2.71885e-08 -4.9203e-10) (2.28846e-08 -2.83326e-08 -3.24216e-10) (2.23996e-08 -2.92952e-08 -1.47974e-10) (2.30378e-08 -2.93426e-08 9.57916e-11)
1800          (1.63165e-09 -1.38999e-09 -8.33192e-11) (4.13505e-09 -4.3842e-09 -4.5002e-10) (9.964e-09 -1.10333e-08 2.29947e-10) (1.47808e-08 -1.59368e-08 -9.09823e-10) (1.84953e-08 -2.04342e-08 -5.8431e-10) (2.13342e-08 -2.2717e-08 -8.95129e-10) (2.24963e-08 -2.52322e-08 -8.94065e-10) (2.2442e-08 -2.66192e-08 -1.10354e-09) (2.28388e-08 -2.80228e-08 -1.11029e-09) (2.26424e-08 -2.91632e-08 -1.87072e-09) (2.23437e-08 -2.92187e-08 -1.35041e-09)
1850          (1.4661e-09 -1.33396e-09 -1.72905e-10) (4.0809e-09 -4.54163e-09 4.13687e-10) (1.01263e-08 -1.07727e-08 -7.13594e-10) (1.54327e-08 -1.61212e-08 -2.35633e-10) (1.93495e-08 -2.03067e-08 -1.23376e-09) (2.08077e-08 -2.3375e-08 -4.38053e-10) (2.20276e-08 -2.54126e-08 -1.6593e-09) (2.26064e-08 -2.75507e-08 -6.11026e-10) (2.29334e-08 -2.84738e-08 -1.29511e-09) (2.2482e-08 -2.91696e-08 -8.96873e-11) (2.27005e-08 -2.90663e-08 -5.17192e-10)
1900          (1.20323e-09 -1.56347e-09 3.14646e-10) (4.25709e-09 -4.35552e-09 3.87488e-10) (9.82984e-09 -1.09673e-08 -9.59082e-11) (1.507e-08 -1.58202e-08 -4.03389e-10) (1.85961e-08 -2.05025e-08 -1.25209e-09) (2.09444e-08 -2.31523e-08 -1.28508e-09) (2.19937e-08 -2.56647e-08 -7.56005e-10) (2.22838e-08 -2.7005e-08 -1.08772e-09) (2.23371e-08 -2.8301e-08 -1.2833e-09) (2.21838e-08 -2.88259e-08 -2.34482e-09) (2.23501e-08 -2.85529e-08 -6.2112e-10)
1950          (1.56584e-09 -1.23297e-09 7.15208e-11) (3.95675e-09 -4.45104e-09 5.08942e-10) (9.81052e-09 -1.08632e-08 3.40376e-10) (1.53121e-08 -1.68641e-08 3.23355e-10) (1.86577e-08 -1.9664e-08 4.84071e-10) (2.14215e-08 -2.36493e-08 1.69617e-10) (2.24185e-08 -2.52278e-08 -1.76356e-10) (2.26539e-08 -2.76303e-08 -2.34919e-10) (2.29607e-08 -2.82461e-08 2.14629e-10) (2.30111e-08 -2.94751e-08 -1.0347e-09) (2.36985e-08 -2.94256e-08 -4.0297e-10)
2000          (1.39561e-09 -1.53221e-09 1.95731e-11) (4.02958e-09 -4.69206e-09 4.78937e-10) (9.66706e-09 -1.09074e-08 -6.53839e-12) (1.44215e-08 -1.62524e-08 3.4146e-10) (1.85799e-08 -2.02015e-08 -7.19397e-10) (2.09541e-08 -2.273e-08 -6.65813e-10) (2.2408e-08 -2.53771e-08 -1.12616e-09) (2.24588e-08 -2.7243e-08 -3.87753e-10) (2.24645e-08 -2.76275e-08 -8.69782e-10) (2.25686e-08 -2.91406e-08 -1.40432e-09) (2.28775e-08 -2.95215e-08 -1.01177e-09)
2050          (1.37217e-09 -1.48765e-09 2.62914e-11) (4.06367e-09 -4.4575e-09 2.48856e-10) (9.50325e-09 -1.08745e-08 -1.39108e-09) (1.51076e-08 -1.69063e-08 -1.07006e-09) (1.9232e-08 -2.07384e-08 -1.57859e-09) (2.15593e-08 -2.3618e-08 -2.08601e-09) (2.22887e-08 -2.54414e-08 -1.38754e-09) (2.2296e-08 -2.68886e-08 -1.28407e-09) (2.22376e-08 -2.76714e-08 -2.11339e-09) (2.22631e-08 -2.90446e-08 -1.81811e-09) (2.21999e-08 -2.90716e-08 -1.18793e-09)
2100          (1.74296e-09 -1.32816e-09 1.41431e-11) (4.62859e-09 -4.36939e-09 1.70607e-10) (9.2539e-09 -1.08981e-08 7.02268e-10) (1.48133e-08 -1.64457e-08 6.22001e-10) (1.86921e-08 -2.02965e-08 1.21226e-09) (2.0531e-08 -2.26859e-08 9.2862e-10) (2.23991e-08 -2.59998e-08 1.3051e-09) (2.17942e-08 -2.7044e-08 8.84106e-10) (2.21195e-08 -2.77681e-08 1.34615e-09) (2.20915e-08 -2.86556e-08 1.86385e-09) (2.18184e-08 -2.83646e-08 5.49534e-10)
2150          (1.55292e-09 -1.55478e-09 1.70101e-10) (4.02608e-09 -4.51962e-09 6.45614e-10) (9.77298e-09 -1.10583e-08 9.49492e-10) (1.47504e-08 -1.63821e-08 1.941e-09) (1.87014e-08 -2.04051e-08 1.01053e-09) (2.10828e-08 -2.35738e-08 1.77793e-09) (2.22757e-08 -2.55394e-08 1.80184e-09) (2.24993e-08 -2.70743e-08 2.82359e-09) (2.28444e-08 -2.78982e-08 2.39461e-09) (2.25632e-08 -2.88509e-08 2.5622e-09) (2.19158e-08 -2.86845e-08 3.88305e-09)
2200          (1.65258e-09 -1.48306e-09 1.05001e-10) (4.29389e-09 -4.88658e-09 4.67157e-11) (9.81218e-09 -1.02019e-08 -1.599e-10) (1.49428e-08 -1.63766e-08 -8.56045e-10) (1.85039e-08 -2.0174e-08 -6.6673e-10) (2.09515e-08 -2.2971e-08 -1.31694e-09) (2.23247e-08 -2.51339e-08 -1.337e-09) (2.26694e-08 -2.71039e-08 -4.46002e-10) (2.26912e-08 -2.83128e-08 -7.90185e-10) (2.25551e-08 -2.90345e-08 -1.41827e-09) (2.27269e-08 -2.8937e-08 -6.03654e-10)
2250          (1.01458e-09 -1.49368e-09 5.12051e-10) (4.20267e-09 -4.39239e-09 5.03245e-10) (9.72825e-09 -1.0617e-08 -6.83596e-10) (1.50513e-08 -1.63104e-08 -4.97652e-10) (1.85746e-08 -2.0157e-08 -1.13982e-09) (2.06538e-08 -2.29282e-08 -8.62748e-10) (2.22777e-08 -2.55486e-08 -1.77834e-09) (2.19977e-08 -2.69482e-08 -2.36552e-09) (2.2573e-08 -2.82758e-08 -1.38843e-09) (2.27012e-08 -2.88973e-08 -2.48579e-09) (2.31948e-08 -2.89626e-08 -1.78257e-09)
2300          (1.22918e-09 -1.57776e-09 3.57981e-10) (4.24268e-09 -5.02795e-09 5.93709e-10) (9.92194e-09 -1.08229e-08 8.75226e-10) (1.55949e-08 -1.74087e-08 6.43172e-10) (1.92194e-08 -2.06877e-08 8.82506e-10) (2.09673e-08 -2.28274e-08 5.54304e-10) (2.17817e-08 -2.47562e-08 1.12839e-10) (2.20711e-08 -2.75466e-08 -5.38854e-10) (2.27141e-08 -2.80755e-08 -6.52931e-10) (2.18346e-08 -2.88586e-08 -2.68048e-11) (2.17234e-08 -2.88984e-08 3.78955e-10)
2350          (1.403e-09 -1.49513e-09 2.13434e-10) (4.06753e-09 -4.24405e-09 -1.06231e-12) (9.61599e-09 -1.08878e-08 1.63822e-10) (1.49817e-08 -1.61906e-08 2.25076e-10) (1.87426e-08 -2.03222e-08 -1.22346e-09) (2.07375e-08 -2.30235e-08 -1.24383e-09) (2.209e-08 -2.4679e-08 -1.53617e-09) (2.22139e-08 -2.71445e-08 -1.22331e-09) (2.2433e-08 -2.7099e-08 -7.37123e-10) (2.18716e-08 -2.85587e-08 -4.34138e-10) (2.20507e-08 -2.89848e-08 -7.76107e-10)
2400          (1.17783e-09 -2.043e-09 5.10435e-11) (4.24522e-09 -4.88311e-09 1.88531e-10) (9.93129e-09 -1.05072e-08 2.80505e-10) (1.47061e-08 -1.58029e-08 -1.06326e-10) (1.84213e-08 -2.02719e-08 -3.70978e-11) (2.09407e-08 -2.35868e-08 -6.03103e-10) (2.24149e-08 -2.53776e-08 -7.57743e-10) (2.25957e-08 -2.66786e-08 -3.98883e-10) (2.24819e-08 -2.85389e-08 -1.02069e-09) (2.23889e-08 -2.93246e-08 -1.09687e-09) (2.24839e-08 -2.94445e-08 -1.2331e-09)
2450          (1.62077e-09 -1.29996e-09 -2.97293e-10) (4.03176e-09 -4.93381e-09 -8.85592e-11) (9.73605e-09 -1.0919e-08 -2.16469e-10) (1.51737e-08 -1.67381e-08 -4.38516e-10) (1.84421e-08 -2.05658e-08 -2.62267e-10) (2.05741e-08 -2.27176e-08 -5.33591e-10) (2.22956e-08 -2.57965e-08 6.76986e-10) (2.2313e-08 -2.70013e-08 3.70708e-10) (2.28764e-08 -2.84586e-08 7.23421e-10) (2.2601e-08 -2.91872e-08 1.94146e-09) (2.30072e-08 -2.95264e-08 2.82538e-09)
2500          (1.51236e-09 -1.35314e-09 1.81369e-10) (4.24126e-09 -4.52095e-09 2.03595e-10) (9.44205e-09 -1.07414e-08 -6.06643e-10) (1.53295e-08 -1.63304e-08 -1.21729e-09) (1.8577e-08 -2.07407e-08 -1.28292e-09) (2.09671e-08 -2.33657e-08 -9.74884e-10) (2.16451e-08 -2.54432e-08 -2.0444e-10) (2.27269e-08 -2.696e-08 -7.99626e-10) (2.23593e-08 -2.84654e-08 3.84962e-10) (2.25315e-08 -2.92295e-08 6.9174e-10) (2.22394e-08 -2.91747e-08 2.60329e-10)
2550          (1.08771e-09 -1.38821e-09 2.28171e-12) (4.24548e-09 -4.79395e-09 -4.31638e-10) (9.91063e-09 -1.13962e-08 3.71181e-10) (1.51703e-08 -1.69645e-08 1.02034e-10) (1.92605e-08 -2.07266e-08 -2.27272e-10) (2.07024e-08 -2.35202e-08 7.33515e-10) (2.22596e-08 -2.54523e-08 1.9796e-10) (2.21753e-08 -2.71647e-08 1.12741e-09) (2.2154e-08 -2.81679e-08 8.00844e-10) (2.23009e-08 -2.94178e-08 1.48994e-09) (2.2368e-08 -2.90832e-08 1.62525e-09)
2600          (1.30291e-09 -1.76796e-09 -2.3417e-10) (3.59312e-09 -4.65603e-09 1.48742e-10) (9.74846e-09 -1.07579e-08 1.86742e-10) (1.5413e-08 -1.63828e-08 3.00609e-10) (1.90575e-08 -2.05608e-08 8.46275e-10) (2.07143e-08 -2.32528e-08 1.38177e-09) (2.218e-08 -2.53831e-08 2.31445e-09) (2.21576e-08 -2.74284e-08 2.29678e-09) (2.26212e-08 -2.82817e-08 2.51046e-09) (2.2643e-08 -2.9104e-08 2.96499e-09) (2.23086e-08 -2.91598e-08 3.64474e-09)
2650          (1.69672e-09 -1.33158e-09 -1.98275e-10) (4.31557e-09 -4.66152e-09 -2.32701e-10) (9.43656e-09 -1.09911e-08 -6.47765e-10) (1.4877e-08 -1.64842e-08 -1.69069e-09) (1.84862e-08 -2.05118e-08 -1.86903e-09) (2.04691e-08 -2.2901e-08 -3.54986e-10) (2.18837e-08 -2.50814e-08 -2.21187e-10) (2.22691e-08 -2.688e-08 -3.92333e-10) (2.21968e-08 -2.78102e-08 -9.89335e-10) (2.21843e-08 -2.87247e-08 -7.57209e-10) (2.19764e-08 -2.8894e-08 -1.20794e-09)
2700          (1.28954e-09 -1.91937e-09 -6.88917e-11) (4.36981e-09 -5.12243e-09 -3.2929e-10) (1.03917e-08 -1.09369e-08 -7.76841e-10) (1.53736e-08 -1.66567e-08 -5.66878e-10) (1.87947e-08 -2.05698e-08 -1.61989e-09) (2.11408e-08 -2.35178e-08 -8.15773e-10) (2.2476e-08 -2.48801e-08 -1.62273e-09) (2.23508e-08 -2.67737e-08 -1.25259e-09) (2.24797e-08 -2.81207e-08 -1.28372e-09) (2.17132e-08 -2.91243e-08 -1.50388e-09) (2.2272e-08 -2.89755e-08 -8.65559e-10)
2750          (1.21593e-09 -1.87729e-09 1.93276e-10) (4.2196e-09 -5.24196e-09 7.64225e-10) (9.64187e-09 -1.077e-08 1.68565e-10) (1.49292e-08 -1.66457e-08 -2.43213e-10) (1.90787e-08 -2.04146e-08 -9.42318e-10) (2.07232e-08 -2.33858e-08 -4.28801e-10) (2.21837e-08 -2.51244e-08 -1.17156e-09) (2.20111e-08 -2.67149e-08 -7.30158e-10) (2.23133e-08 -2.78838e-08 -1.45975e-09) (2.24675e-08 -2.89434e-08 -9.56353e-10) (2.25769e-08 -2.85787e-08 -5.74686e-10)
2800          (1.63861e-09 -1.50874e-09 -7.44657e-11) (4.16745e-09 -5.08828e-09 2.04683e-10) (9.49918e-09 -1.09907e-08 5.32865e-10) (1.52674e-08 -1.64577e-08 -6.02038e-10) (1.85805e-08 -2.06863e-08 -1.05868e-09) (2.06697e-08 -2.28449e-08 -6.28156e-10) (2.1961e-08 -2.52509e-08 -8.67787e-10) (2.2284e-08 -2.65461e-08 -5.38212e-11) (2.23119e-08 -2.74534e-08 -1.61609e-09) (2.2195e-08 -2.90216e-08 -8.18336e-10) (2.20503e-08 -2.8892e-08 7.74923e-10)
2850          (1.34113e-09 -1.73333e-09 -4.64298e-11) (4.36997e-09 -5.38991e-09 8.18043e-11) (9.51603e-09 -1.13517e-08 2.4931e-10) (1.53911e-08 -1.63046e-08 3.46229e-10) (1.8881e-08 -2.01813e-08 -3.60141e-10) (2.15064e-08 -2.31949e-08 -1.85693e-10) (2.2201e-08 -2.55025e-08 -4.50933e-10) (2.23584e-08 -2.71802e-08 5.32572e-11) (2.23408e-08 -2.79733e-08 9.84705e-11) (2.28608e-08 -2.87873e-08 2.1714e-10) (2.287e-08 -2.88814e-08 4.26785e-10)
2900          (1.66679e-09 -1.73096e-09 2.97468e-10) (4.07198e-09 -4.59122e-09 1.7742e-10) (1.03693e-08 -1.11251e-08 -3.51478e-10) (1.51904e-08 -1.69904e-08 -8.4688e-10) (1.93471e-08 -2.07833e-08 -2.21092e-09) (2.09381e-08 -2.33503e-08 -2.48198e-09) (2.2547e-08 -2.5907e-08 -1.61392e-09) (2.23499e-08 -2.70758e-08 -2.07279e-09) (2.27319e-08 -2.83587e-08 -1.78983e-09) (2.27877e-08 -2.9272e-08 -1.20951e-09) (2.26968e-08 -2.86561e-08 -1.27877e-09)
2950          (1.37699e-09 -1.40278e-09 -3.56079e-10) (4.33314e-09 -4.2581e-09 -1.00414e-11) (9.28749e-09 -1.04381e-08 9.77414e-10) (1.45839e-08 -1.6197e-08 7.20724e-11) (1.84304e-08 -2.0477e-08 7.7527e-10) (2.04902e-08 -2.3408e-08 1.09648e-09) (2.13817e-08 -2.50187e-08 8.60489e-10) (2.22107e-08 -2.75719e-08 1.1337e-09) (2.27649e-08 -2.83517e-08 8.61038e-10) (2.19398e-08 -2.94298e-08 1.08235e-09) (2.19501e-08 -2.95865e-08 1.18529e-09)
3000          (1.00829e-09 -1.64085e-09 -1.19203e-11) (4.21213e-09 -4.60134e-09 6.8106e-10) (9.69496e-09 -1.10319e-08 -2.83101e-10) (1.51264e-08 -1.61089e-08 -7.45581e-10) (1.84167e-08 -2.02316e-08 -1.23811e-09) (2.08523e-08 -2.29833e-08 -1.16509e-09) (2.19651e-08 -2.51899e-08 -6.57813e-10) (2.25492e-08 -2.67561e-08 -1.3759e-10) (2.25205e-08 -2.78553e-08 -7.72494e-10) (2.22002e-08 -2.94443e-08 -6.86964e-10) (2.25713e-08 -2.87199e-08 -7.45249e-10)
3050          (1.82596e-09 -1.30256e-09 1.86447e-10) (4.31528e-09 -4.8603e-09 2.49038e-10) (9.991e-09 -1.10242e-08 7.3371e-10) (1.48964e-08 -1.67439e-08 1.14513e-09) (1.90425e-08 -2.05439e-08 7.08334e-10) (2.09386e-08 -2.29785e-08 1.11173e-09) (2.25677e-08 -2.56736e-08 8.43855e-11) (2.25887e-08 -2.69845e-08 2.6861e-10) (2.27567e-08 -2.80979e-08 9.43743e-10) (2.2667e-08 -2.90116e-08 1.41332e-09) (2.28629e-08 -2.90428e-08 9.3294e-10)
3100          (1.42431e-09 -1.5094e-09 2.26268e-10) (3.71499e-09 -4.60055e-09 4.37678e-10) (9.9852e-09 -1.03336e-08 3.09556e-10) (1.52783e-08 -1.61435e-08 9.23604e-11) (1.87111e-08 -1.98866e-08 7.22786e-10) (2.06952e-08 -2.25821e-08 1.06163e-10) (2.23628e-08 -2.52821e-08 6.38817e-11) (2.27391e-08 -2.70261e-08 4.91638e-11) (2.22396e-08 -2.83411e-08 6.29257e-10) (2.23256e-08 -2.90238e-08 -1.70432e-10) (2.24132e-08 -2.94093e-08 -1.5019e-10)
3150          (1.54936e-09 -1.57322e-09 5.7303e-11) (4.15792e-09 -4.37996e-09 -6.08678e-11) (9.10658e-09 -1.0921e-08 8.56227e-10) (1.49704e-08 -1.68261e-08 1.43651e-09) (1.88667e-08 -2.03641e-08 1.48963e-09) (2.07556e-08 -2.27916e-08 1.36193e-09) (2.21065e-08 -2.54149e-08 2.20602e-09) (2.23028e-08 -2.65136e-08 2.15817e-09) (2.20999e-08 -2.79892e-08 2.74205e-09) (2.2354e-08 -2.87351e-08 2.40744e-09) (2.23691e-08 -2.82609e-08 2.38776e-09)
3200          (1.58808e-09 -1.71628e-09 -1.8598e-10) (4.21373e-09 -5.23583e-09 -2.16406e-10) (1.01347e-08 -1.11363e-08 1.4212e-11) (1.47895e-08 -1.65066e-08 -1.32696e-10) (1.88422e-08 -2.05568e-08 5.41293e-10) (2.0847e-08 -2.3313e-08 7.34522e-10) (2.17596e-08 -2.55743e-08 1.32375e-09) (2.25204e-08 -2.74423e-08 9.18171e-10) (2.22428e-08 -2.84206e-08 -3.39235e-11) (2.22333e-08 -2.86411e-08 1.43936e-09) (2.19869e-08 -2.91714e-08 1.25556e-09)
3250          (1.34452e-09 -1.37528e-09 3.72342e-10) (3.90232e-09 -5.16386e-09 9.0965e-10) (9.83523e-09 -1.08747e-08 2.08342e-10) (1.50637e-08 -1.66671e-08 -7.59017e-10) (1.87621e-08 -2.00887e-08 -6.25423e-10) (2.1461e-08 -2.29565e-08 -1.14482e-09) (2.27226e-08 -2.55999e-08 -9.07047e-10) (2.28619e-08 -2.76889e-08 -1.01268e-09) (2.25683e-08 -2.86037e-08 -3.75383e-10) (2.29046e-08 -2.95466e-08 -1.12708e-09) (2.28729e-08 -2.92921e-08 -1.12398e-10)
3300          (1.6389e-09 -1.3558e-09 -3.10629e-11) (4.55008e-09 -4.82532e-09 2.17858e-10) (9.66162e-09 -1.07655e-08 -3.21124e-10) (1.47857e-08 -1.64844e-08 -1.03539e-09) (1.84926e-08 -2.01346e-08 -1.3879e-09) (2.10597e-08 -2.33578e-08 -1.33106e-09) (2.25227e-08 -2.56189e-08 -6.19405e-10) (2.23458e-08 -2.73892e-08 -1.19239e-09) (2.2566e-08 -2.78878e-08 9.62004e-11) (2.2348e-08 -2.84602e-08 1.69506e-10) (2.24588e-08 -2.89263e-08 -3.77869e-10)