# Probe 0 (0.0015 0.0015 0)
# Probe 1 (0.0015 0.0015 0.01)
# Probe 2 (0.0015 0.0015 0.02)
# Probe 3 (0.0015 0.0015 0.03)
# Probe 4 (0.0015 0.0015 0.04)
# Probe 5 (0.0015 0.0015 0.05)
# Probe 6 (0.0015 0.0015 0.06)
# Probe 7 (0.0015 0.0015 0.07)
# Probe 8 (0.0015 0.0015 0.08)
# Probe 9 (0.0015 0.0015 0.09)
# Probe 10 (0.0015 0.0015 0.1)
# Time        0             1             2             3             4             5             6             7             8             9             10           
50            (13.217 13.217 -7.31253e+06) (0.403176 0.403176 -5.43665e+06) (2.10065 2.10065 -2.67566e+06) (0.482999 0.482999 -987666) (1.01113 1.01113 -286279) (-1.81933 -1.81933 -75545.7) (-0.22567 -0.22567 1310.99) (-0.0139158 -0.0139158 4.23507) (-0.0649245 -0.0649245 -29.7491) (5.1787 5.1787 -43752.6) (-4.41173 -4.41173 -1.68579e+07)
100           (2.3518 2.3518 -5.20345e+06) (11.744 11.744 -4.60634e+06) (4.30184 4.30184 -3.34831e+06) (-2.36224 -2.36224 -1.92523e+06) (-2.8219 -2.8219 -898291) (-0.0126863 -0.0126863 -747562) (1.88483 1.88483 1720.99) (1.27344 1.27344 6.84503) (0.0597674 0.0597674 -285.714) (-3.02939 -3.02939 -170708) (-105.849 -105.849 -1.34643e+07)
150           (-10.5657 -10.5657 -4.25195e+06) (-6.4557 -6.4557 -3.94144e+06) (-3.9615 -3.9615 -3.25435e+06) (-0.931775 -0.931775 -2.31825e+06) (0.718845 0.718845 -1.40687e+06) (-56.576 -56.576 -1.56364e+06) (1.87084 1.87084 -8850.3) (0.00195706 0.00195705 15.6628) (0.197366 0.197366 -1410.61) (21.095 21.095 -362553) (7.55933 7.55933 -1.14831e+07)
200           (-5.86713 -5.86713 -3.68405e+06) (-5.67366 -5.67366 -3.48843e+06) (-4.71464 -4.71464 -3.05061e+06) (-9.47065 -9.47065 -2.41603e+06) (22.6964 22.6964 -1.70952e+06) (-105.849 -105.849 -2.25965e+06) (-0.663413 -0.663413 -44060.3) (-0.00486373 -0.00486375 -30.5808) (-0.0744089 -0.0744089 -4429.3) (-0.793218 -0.793218 -582684) (-34.2834 -34.2834 -1.01612e+07)
250           (-4.96808 -4.96808 -3.29957e+06) (-0.281096 -0.281096 -3.16363e+06) (-0.166158 -0.166158 -2.85843e+06) (-4.9559 -4.9559 -2.40389e+06) (6.47111 6.47111 -1.86299e+06) (16.0081 16.0081 -2.74827e+06) (6.06667 6.06667 -114709) (-0.0899782 -0.0899782 -335.728) (0.537186 0.537186 -10467.6) (19.7779 19.7779 -802807) (11.6775 11.6775 -9.20436e+06)
300           (-5.83303 -5.83303 -3.0202e+06) (4.77662 4.77662 -2.91979e+06) (-5.53236 -5.53236 -2.69409e+06) (-3.52568 -3.52568 -2.35273e+06) (8.11997 8.11997 -1.93026e+06) (-89.7713 -89.7713 -3.05921e+06) (19.695 19.695 -226718) (0.157326 0.157326 -1309.27) (1.50733 1.50733 -20400.1) (28.8961 28.8961 -1.00744e+06) (-50.4073 -50.4073 -8.4723e+06)
350           (-2.28672 -2.28672 -2.8072e+06) (-2.58635 -2.58635 -2.72967e+06) (-0.804681 -0.804681 -2.55525e+06) (2.91248 2.91248 -2.28868e+06) (0.328008 0.328008 -1.94995e+06) (20.0631 20.0631 -3.2447e+06) (-22.9741 -22.9741 -378728) (-0.399742 -0.399742 -3581.24) (-2.18313 -2.18313 -34723.1) (-21.895 -21.895 -1.19001e+06) (6.65372 6.65372 -7.88975e+06)
400           (-5.54137 -5.54137 -2.63866e+06) (-2.632 -2.632 -2.57666e+06) (7.65675 7.65675 -2.43705e+06) (-5.73532 -5.73532 -2.22206e+06) (3.98248 3.98248 -1.94365e+06) (78.7003 78.7003 -3.3485e+06) (10.7219 10.7219 -564559) (-7.63978 -7.63978 -7960.33) (1.4052 1.4052 -53507.5) (0.618755 0.618755 -1.34914e+06) (4.53065 4.53065 -7.41229e+06)
450           (-6.80455 -6.80455 -2.50119e+06) (-7.15307 -7.15307 -2.45017e+06) (7.20901 7.20901 -2.3352e+06) (-2.12164 -2.12164 -2.15706e+06) (0.230492 0.230492 -1.92321e+06) (65.5126 65.5126 -3.39883e+06) (6.52699 6.52698 -775653) (-20.7675 -20.7675 -15351.9) (8.51071 8.51071 -76503.6) (3.21206 3.21206 -1.48602e+06) (0.628991 0.628991 -7.01178e+06)
500           (-6.67083 -6.67083 -2.38627e+06) (-1.50255 -1.50255 -2.34327e+06) (3.22658 3.22658 -2.24632e+06) (1.97583 1.97583 -2.09546e+06) (-20.7378 -20.7378 -1.89533e+06) (-58.0413 -58.0413 -3.41498e+06) (39.8161 39.8161 -1.00287e+06) (-1.51595 -1.51595 -26650.7) (3.46316 3.46316 -103230) (18.5945 18.5945 -1.60286e+06) (-19.3683 -19.3683 -6.66971e+06)
550           (-3.01345 -3.01345 -2.28816e+06) (-0.306345 -0.306345 -2.25122e+06) (-2.71905 -2.71905 -2.16787e+06) (-5.0747 -5.0747 -2.03778e+06) (-5.61918 -5.61918 -1.86327e+06) (117.762 117.762 -3.41025e+06) (-59.927 -59.927 -1.23763e+06) (-4.91268 -4.91268 -42656.5) (-9.05856 -9.05856 -133109) (-27.903 -27.903 -1.70218e+06) (15.9948 15.9948 -6.37302e+06)
600           (-4.65389 -4.65389 -2.20292e+06) (-2.90797 -2.90797 -2.17066e+06) (-4.01715 -4.01715 -2.09789e+06) (-3.46837 -3.46837 -1.98401e+06) (-3.02249 -3.02249 -1.83037e+06) (112.393 112.393 -3.39115e+06) (-63.8557 -63.8557 -1.4729e+06) (-6.88127 -6.88127 -64009.7) (-10.5515 -10.5515 -165536) (-26.3837 -26.3837 -1.78634e+06) (18.4337 18.4337 -6.1127e+06)
650           (-5.49376 -5.49376 -2.12787e+06) (-3.98567 -3.98567 -2.09933e+06) (-6.41476 -6.41476 -2.03496e+06) (-12.6579 -12.6579 -1.93398e+06) (-10.7285 -10.7285 -1.7964e+06) (80.2984 80.2984 -3.36317e+06) (-42.6787 -42.6787 -1.7029e+06) (-5.6366 -5.6366 -91135.5) (-7.58063 -7.58063 -199940) (-16.4528 -16.4528 -1.85753e+06) (36.2667 36.2667 -5.8819e+06)
700           (3.89657 3.89657 -2.06103e+06) (-5.23029 -5.23029 -2.03548e+06) (-12.0586 -12.0586 -1.97786e+06) (-13.4362 -13.4362 -1.88736e+06) (-3.97125 -3.97125 -1.7636e+06) (74.1828 74.1828 -3.32944e+06) (-40.0759 -40.0759 -1.92385e+06) (-6.85143 -6.85143 -124260) (-7.91763 -7.91763 -235849) (-14.0367 -14.0367 -1.91771e+06) (30.4416 30.4416 -5.67534e+06)
750           (-2.9801 -2.9801 -2.0008e+06) (0.976899 0.976899 -1.97773e+06) (4.96376 4.96376 -1.92571e+06) (5.70523 5.70523 -1.84395e+06) (9.38625 9.38625 -1.73198e+06) (-68.7602 -68.7602 -3.2924e+06) (20.6579 20.6579 -2.13314e+06) (5.84907 5.84907 -163357) (5.04029 5.04029 -272836) (5.3098 5.3098 -1.96849e+06) (27.7407 27.7407 -5.48914e+06)
800           (-7.97978 -7.97978 -1.94613e+06) (2.11777 2.11777 -1.92513e+06) (-3.21951 -3.21951 -1.87781e+06) (-2.20382 -2.20382 -1.80333e+06) (-10.6732 -10.6732 -1.70088e+06) (147.019 147.019 -3.25356e+06) (-26.388 -26.388 -2.32942e+06) (-11.1824 -11.1824 -208406) (-15.2235 -15.2235 -310664) (-16.0543 -16.0543 -2.01126e+06) (35.2294 35.2294 -5.32006e+06)
850           (-7.29162 -7.29162 -1.89614e+06) (2.93045 2.93045 -1.87691e+06) (-3.7436 -3.7436 -1.83358e+06) (-1.61672 -1.61672 -1.76537e+06) (-10.3653 -10.3653 -1.67139e+06) (134.369 134.369 -3.21363e+06) (-22.2615 -22.2615 -2.51162e+06) (-3.84464 -3.84464 -258924) (-12.0363 -12.0363 -349004) (-13.3857 -13.3857 -2.04723e+06) (31.6671 31.6671 -5.16574e+06)
900           (-6.66672 -6.66672 -1.85015e+06) (2.8363 2.8363 -1.83244e+06) (-3.45223 -3.45223 -1.79256e+06) (-1.77855 -1.77855 -1.72975e+06) (-9.66772 -9.66772 -1.64309e+06) (124.38 124.38 -3.17343e+06) (-20.588 -20.588 -2.6798e+06) (-2.31094 -2.31094 -314526) (-8.54826 -8.54826 -387709) (-10.7044 -10.7044 -2.0774e+06) (28.6703 28.6703 -5.0241e+06)
950           (-8.53595 -8.53595 -1.80774e+06) (0.403233 0.403233 -1.79133e+06) (6.85546 6.85546 -1.75441e+06) (14.7959 14.7959 -1.69622e+06) (11.4289 11.4289 -1.61606e+06) (-89.2698 -89.2698 -3.13347e+06) (28.052 28.052 -2.83431e+06) (12.8067 12.8067 -374694) (8.89129 8.89129 -426655) (6.98134 6.98134 -2.10262e+06) (-26.273 -26.273 -4.89349e+06)
1000          (-4.32785 -4.32785 -1.76831e+06) (-6.20408 -6.20408 -1.75305e+06) (1.8635 1.8635 -1.71871e+06) (14.7665 14.7665 -1.6646e+06) (31.7264 31.7264 -1.59005e+06) (-71.8423 -71.8423 -3.09395e+06) (19.8141 19.8141 -2.97571e+06) (16.7592 16.7592 -438912) (10.3896 10.3896 -465777) (7.36063 7.36063 -2.12359e+06) (-20.6244 -20.6244 -4.77257e+06)
1050          (2.07662 2.07662 -1.73152e+06) (-11.1498 -11.1498 -1.71727e+06) (-5.70249 -5.70249 -1.68523e+06) (7.46246 7.46246 -1.63474e+06) (31.0133 31.0133 -1.56516e+06) (-72.3957 -72.3957 -3.05507e+06) (3.73276 3.73277 -3.10467e+06) (12.8349 12.8349 -506598) (4.49527 4.49527 -505024) (4.39012 4.39012 -2.14093e+06) (-19.8722 -19.8722 -4.6602e+06)
1100          (4.69079 4.69079 -1.69709e+06) (-12.0265 -12.0265 -1.68374e+06) (-8.0709 -8.0709 -1.65375e+06) (1.83171 1.83171 -1.60648e+06) (26.5642 26.5642 -1.54131e+06) (-68.574 -68.574 -3.01703e+06) (-1.84644 -1.84644 -3.222e+06) (10.5862 10.5862 -577180) (0.532929 0.53293 -544372) (3.30046 3.30046 -2.15516e+06) (-19.0971 -19.0971 -4.55541e+06)
1150          (4.44573 4.44573 -1.66479e+06) (-11.8125 -11.8125 -1.65225e+06) (-9.65956 -9.65956 -1.62408e+06) (6.57413 6.57413 -1.57972e+06) (-5.91087 -5.91087 -1.51871e+06) (-95.316 -95.316 -2.98023e+06) (19.4182 19.4182 -3.32859e+06) (-1.83102 -1.83102 -650087) (-1.41777 -1.41777 -583812) (-4.01722 -4.01722 -2.16674e+06) (-15.9931 -15.9931 -4.45738e+06)
1200          (-4.32776 -4.32776 -1.63441e+06) (-4.00072 -4.00072 -1.62258e+06) (-6.56342 -6.56342 -1.59603e+06) (4.39234 4.39234 -1.5542e+06) (-36.8198 -36.8198 -1.49664e+06) (2.46968 2.46968 -2.94388e+06) (15.8097 15.8097 -3.42532e+06) (13.3141 13.3141 -724793) (-4.71028 -4.71028 -623322) (-6.44001 -6.44001 -2.17605e+06) (8.5884 8.5884 -4.36546e+06)
1250          (-24.9146 -24.9146 -1.60569e+06) (13.7301 13.7301 -1.59453e+06) (-10.5127 -10.5127 -1.56944e+06) (-3.69904 -3.69904 -1.52993e+06) (-21.4821 -21.4821 -1.47556e+06) (-8.35352 -8.35352 -2.90851e+06) (14.2336 14.2336 -3.51302e+06) (19.6641 19.6641 -800833) (-5.73779 -5.73779 -662931) (-8.23446 -8.23446 -2.18342e+06) (11.0673 11.0673 -4.27898e+06)
1300          (-13.4346 -13.4346 -1.57852e+06) (16.2487 16.2487 -1.56794e+06) (-18.4823 -18.4823 -1.54419e+06) (0.819188 0.819188 -1.50682e+06) (-22.6823 -22.6823 -1.45543e+06) (-2.09489 -2.09489 -2.87428e+06) (9.89504 9.89504 -3.59242e+06) (11.0877 11.0877 -877761) (-7.42654 -7.42654 -702644) (-10.0483 -10.0483 -2.18915e+06) (-12.5454 -12.5454 -4.19743e+06)
1350          (-8.29592 -8.29592 -1.55274e+06) (13.4361 13.4361 -1.5427e+06) (-15.4015 -15.4015 -1.52018e+06) (13.488 13.488 -1.48475e+06) (-0.328195 -0.328195 -1.43603e+06) (14.8812 14.8812 -2.84108e+06) (-6.06465 -6.06465 -3.66425e+06) (-4.72869 -4.72869 -955124) (-3.6357 -3.6357 -742442) (-2.19199 -2.19199 -2.19349e+06) (-14.1083 -14.1083 -4.12041e+06)
1400          (-7.26128 -7.26128 -1.52824e+06) (14.4888 14.4888 -1.5187e+06) (-14.2755 -14.2755 -1.4973e+06) (12.1609 12.1609 -1.46365e+06) (3.35922 3.35922 -1.41737e+06) (14.5378 14.5378 -2.80883e+06) (-7.5092 -7.5092 -3.72921e+06) (-7.20403 -7.20403 -1.03258e+06) (-3.60273 -3.60273 -782324) (-0.822683 -0.822683 -2.19665e+06) (-12.9076 -12.9076 -4.0475e+06)
1450          (-7.90243 -7.90243 -1.50492e+06) (16.0122 16.0122 -1.49583e+06) (-12.917 -12.917 -1.47547e+06) (7.24794 7.24794 -1.44345e+06) (7.21006 7.21006 -1.39941e+06) (13.2816 13.2816 -2.77754e+06) (-7.33674 -7.33674 -3.78792e+06) (-7.43658 -7.43658 -1.10979e+06) (-3.66346 -3.66346 -822288) (-0.536775 -0.536775 -2.19883e+06) (-12.1557 -12.1557 -3.97835e+06)
1500          (-7.9379 -7.9379 -1.48268e+06) (15.8645 15.8645 -1.47402e+06) (-9.9805 -9.9805 -1.4546e+06) (1.60655 1.60655 -1.42409e+06) (10.7175 10.7175 -1.38212e+06) (11.8916 11.8916 -2.74717e+06) (-6.97374 -6.97374 -3.84096e+06) (-7.35463 -7.35463 -1.18647e+06) (-3.68049 -3.68049 -862320) (-0.384149 -0.384149 -2.2002e+06) (-11.5288 -11.5288 -3.91266e+06)
1550          (-7.31782 -7.31782 -1.46145e+06) (14.4504 14.4504 -1.45317e+06) (-7.25298 -7.25298 -1.43464e+06) (-1.85863 -1.85863 -1.40551e+06) (12.4041 12.4041 -1.36546e+06) (11.5431 11.5431 -2.71771e+06) (-6.77571 -6.77571 -3.88885e+06) (-7.36037 -7.36037 -1.26238e+06) (-3.75021 -3.75021 -902407) (-0.250726 -0.250726 -2.20091e+06) (-10.8418 -10.8418 -3.85016e+06)
1600          (-4.25561 -4.25561 -1.44121e+06) (-2.6675 -2.6675 -1.43329e+06) (0.982096 0.982097 -1.41554e+06) (-6.6145 -6.6145 -1.38764e+06) (21.2126 21.2126 -1.34937e+06) (43.4918 43.4918 -2.68939e+06) (13.0812 13.0812 -3.93211e+06) (9.07471 9.07471 -1.33722e+06) (8.61416 8.61416 -942485) (5.30698 5.30698 -2.20111e+06) (-5.23706 -5.23706 -3.7906e+06)
1650          (-7.46352 -7.46352 -1.42181e+06) (-2.24641 -2.24641 -1.41421e+06) (-0.44097 -0.440969 -1.39719e+06) (-9.32757 -9.32757 -1.37046e+06) (20.3808 20.3808 -1.3338e+06) (33.1368 33.1368 -2.66145e+06) (13.8277 13.8277 -3.9712e+06) (-4.13609 -4.13609 -1.41091e+06) (7.15325 7.15325 -982592) (6.26839 6.26839 -2.20088e+06) (-3.83346 -3.83346 -3.73377e+06)
1700          (-7.94781 -7.94781 -1.40318e+06) (-3.66704 -3.66704 -1.39588e+06) (-2.91216 -2.91216 -1.37956e+06) (-8.56425 -8.56425 -1.35393e+06) (17.089 17.089 -1.3188e+06) (25.7082 25.7082 -2.63445e+06) (16.8144 16.8144 -4.00647e+06) (-10.3341 -10.3341 -1.48329e+06) (2.3649 2.3649 -1.02268e+06) (5.17192 5.17192 -2.20034e+06) (-3.47239 -3.47239 -3.67948e+06)
1750          (-6.50664 -6.50665 -1.38529e+06) (-5.10862 -5.10862 -1.37828e+06) (-4.67422 -4.67422 -1.36262e+06) (-8.15301 -8.15301 -1.33803e+06) (15.5166 15.5166 -1.30434e+06) (20.6542 20.6542 -2.60827e+06) (19.3108 19.3108 -4.03824e+06) (-13.0622 -13.0622 -1.55423e+06) (-3.16146 -3.16146 -1.06274e+06) (3.2392 3.2392 -2.19956e+06) (-3.40746 -3.40746 -3.62755e+06)
1800          (-4.42618 -4.42618 -1.3681e+06) (-6.27343 -6.27343 -1.36137e+06) (-5.57189 -5.57189 -1.34632e+06) (-7.74188 -7.74188 -1.32271e+06) (14.4881 14.4881 -1.29036e+06) (17.2356 17.2356 -2.58289e+06) (21.4591 21.4591 -4.06683e+06) (-14.1501 -14.1501 -1.62363e+06) (-8.27908 -8.27908 -1.10272e+06) (0.808772 0.808772 -2.19864e+06) (-3.51124 -3.51124 -3.57783e+06)
1850          (-2.50061 -2.50061 -1.35157e+06) (-7.0188 -7.0188 -1.34509e+06) (-5.87469 -5.87469 -1.33063e+06) (-7.20832 -7.20832 -1.30794e+06) (13.6504 13.6504 -1.27685e+06) (14.6414 14.6414 -2.55825e+06) (23.3622 23.3622 -4.09252e+06) (-14.3202 -14.3202 -1.69141e+06) (-12.6456 -12.6456 -1.14261e+06) (-1.81501 -1.81501 -2.19763e+06) (-3.73602 -3.73602 -3.53019e+06)
1900          (-1.06792 -1.06792 -1.33566e+06) (-7.34266 -7.34266 -1.32942e+06) (-5.78064 -5.78064 -1.31551e+06) (-6.57723 -6.57723 -1.29368e+06) (12.9167 12.9167 -1.26378e+06) (12.4638 12.4638 -2.53433e+06) (25.0439 25.0439 -4.11558e+06) (-13.9149 -13.9149 -1.75751e+06) (-16.2054 -16.2054 -1.18237e+06) (-4.39786 -4.39786 -2.1966e+06) (-4.02247 -4.02247 -3.48449e+06)
1950          (-0.194349 -0.19435 -1.32033e+06) (-7.3091 -7.3091 -1.31432e+06) (-5.42052 -5.42052 -1.30093e+06) (-5.90009 -5.90009 -1.27992e+06) (12.2559 12.2559 -1.25114e+06) (10.5378 10.5378 -2.5111e+06) (26.4983 26.4983 -4.13624e+06) (-13.1284 -13.1284 -1.82189e+06) (-18.9932 -18.9932 -1.22197e+06) (-6.78087 -6.78087 -2.1956e+06) (-4.31818 -4.31818 -3.44062e+06)
2000          (-0.611 -0.611 -1.30558e+06) (0.596825 0.596825 -1.29979e+06) (6.23007 6.23007 -1.28688e+06) (-11.2132 -11.2132 -1.26661e+06) (23.804 23.804 -1.23875e+06) (175.009 175.009 -2.48807e+06) (0.1232 0.1232 -4.15468e+06) (-34.681 -34.681 -1.88455e+06) (-25.3677 -25.3677 -1.2614e+06) (-1.69626 -1.69626 -2.19467e+06) (14.0359 14.0359 -3.39848e+06)
2050          (0.0294548 0.0294548 -1.29137e+06) (5.38269 5.38269 -1.28577e+06) (2.94595 2.94595 -1.27329e+06) (-12.9639 -12.9639 -1.25372e+06) (22.3055 22.3055 -1.22682e+06) (167.281 167.281 -2.466e+06) (-2.02698 -2.02698 -4.17115e+06) (-29.1082 -29.1082 -1.9454e+06) (-21.6116 -21.6116 -1.30059e+06) (-1.53329 -1.53329 -2.19385e+06) (13.1494 13.1494 -3.35798e+06)
2100          (-0.173703 -0.173703 -1.27771e+06) (0.511229 0.511229 -1.27224e+06) (-1.70981 -1.70981 -1.26025e+06) (-9.75174 -9.75174 -1.24131e+06) (26.4515 26.4515 -1.2152e+06) (12.515 12.515 -2.44457e+06) (6.44918 6.44918 -4.18583e+06) (-41.6278 -41.6278 -2.00447e+06) (-31.9581 -31.9581 -1.33952e+06) (-2.53585 -2.53585 -2.19318e+06) (16.9276 16.9276 -3.31902e+06)
2150          (-3.10466 -3.10466 -1.26454e+06) (-3.27252 -3.27252 -1.25912e+06) (0.237135 0.237135 -1.2473e+06) (-1.73387 -1.73387 -1.22955e+06) (-8.97243 -8.97243 -1.20379e+06) (22.794 22.794 -2.42346e+06) (0.848432 0.848432 -4.19884e+06) (-35.7817 -35.7817 -2.06178e+06) (-28.148 -28.148 -1.37818e+06) (-2.34172 -2.34172 -2.19267e+06) (9.80045 9.80045 -3.28154e+06)
2200          (-1.61934 -1.61934 -1.25169e+06) (1.20625 1.20625 -1.24658e+06) (8.83649 8.83649 -1.23508e+06) (-10.2455 -10.2455 -1.21768e+06) (-8.12903 -8.12903 -1.19329e+06) (165.131 165.131 -2.40357e+06) (-1.15408 -1.15408 -4.21036e+06) (-59.3363 -59.3363 -2.11733e+06) (-47.8468 -47.8468 -1.41652e+06) (-3.25369 -3.25369 -2.19236e+06) (21.1772 21.1772 -3.24544e+06)
2250          (-6.22628 -6.22628 -1.23932e+06) (-2.0617 -2.0617 -1.23436e+06) (21.9801 21.9801 -1.22314e+06) (-11.9127 -11.9127 -1.20645e+06) (-14.9193 -14.9193 -1.18287e+06) (54.3532 54.3532 -2.38408e+06) (1.72997 1.72997 -4.22052e+06) (-41.6733 -41.6733 -2.17113e+06) (-34.7569 -34.7569 -1.45453e+06) (-3.21791 -3.21791 -2.19226e+06) (14.6026 14.6026 -3.21068e+06)
2300          (-0.142106 -0.142106 -1.2273e+06) (-6.87935 -6.87935 -1.22251e+06) (7.95882 7.95882 -1.2117e+06) (-8.73456 -8.73456 -1.19544e+06) (-0.855981 -0.855981 -1.17263e+06) (97.1277 97.1277 -2.36487e+06) (7.08122 7.08122 -4.22937e+06) (-63.3366 -63.3366 -2.22321e+06) (-52.8801 -52.8801 -1.49217e+06) (-5.35462 -5.35462 -2.19239e+06) (16.9751 16.9751 -3.1772e+06)
2350          (-12.4673 -12.4673 -1.21582e+06) (-0.054677 -0.0546769 -1.2111e+06) (0.896099 0.896099 -1.20035e+06) (5.5155 5.5155 -1.18495e+06) (-37.8527 -37.8527 -1.16278e+06) (20.6108 20.6108 -2.34595e+06) (4.80534 4.80534 -4.23706e+06) (-9.97962 -9.97962 -2.2736e+06) (-11.0949 -11.0949 -1.52944e+06) (-2.67515 -2.67515 -2.19276e+06) (-11.0665 -11.0665 -3.14494e+06)
2400          (-9.06078 -9.06078 -1.20444e+06) (-0.492273 -0.492272 -1.19994e+06) (-0.45368 -0.45368 -1.18989e+06) (-7.18311 -7.18311 -1.17454e+06) (14.2676 14.2676 -1.15326e+06) (-56.0182 -56.0182 -2.32806e+06) (-9.49641 -9.49641 -4.24368e+06) (78.3583 78.3583 -2.32232e+06) (83.3306 83.3306 -1.5663e+06) (10.4604 10.4604 -2.19338e+06) (-4.96875 -4.96875 -3.11385e+06)
2450          (0.196879 0.19688 -1.19359e+06) (1.62555 1.62555 -1.18922e+06) (-10.4766 -10.4766 -1.17938e+06) (1.63567 1.63567 -1.16456e+06) (-16.3463 -16.3463 -1.14379e+06) (-31.5076 -31.5076 -2.31087e+06) (-4.79114 -4.79114 -4.24931e+06) (12.1907 12.1907 -2.36943e+06) (-8.33944 -8.33944 -1.60272e+06) (0.763603 0.763603 -2.19426e+06) (2.44787 2.44787 -3.08386e+06)
2500          (-0.506363 -0.506363 -1.18312e+06) (0.540251 0.540251 -1.17888e+06) (7.01378 7.01378 -1.16921e+06) (5.36906 5.36906 -1.15493e+06) (6.8054 6.8054 -1.13481e+06) (23.9488 23.9488 -2.29353e+06) (8.96118 8.96118 -4.25407e+06) (-33.6545 -33.6545 -2.41494e+06) (-30.6266 -30.6266 -1.63872e+06) (-4.19864 -4.19864 -2.19539e+06) (12.1392 12.1392 -3.05494e+06)
2550          (-11.1712 -11.1712 -1.17304e+06) (-2.33778 -2.33778 -1.16896e+06) (-0.355815 -0.355815 -1.15918e+06) (-16.0189 -16.0189 -1.14549e+06) (47.0575 47.0575 -1.12586e+06) (-67.1693 -67.1693 -2.27615e+06) (5.24473 5.24474 -4.25799e+06) (-77.3787 -77.3787 -2.4589e+06) (-71.7549 -71.7549 -1.67424e+06) (-1.53891 -1.53891 -2.1968e+06) (-18.3039 -18.3039 -3.02705e+06)
2600          (-5.76244 -5.76244 -1.16316e+06) (-2.00941 -2.00941 -1.15925e+06) (-9.11545 -9.11545 -1.14965e+06) (14.8983 14.8983 -1.13633e+06) (-15.2001 -15.2001 -1.11739e+06) (-150.809 -150.809 -2.2599e+06) (0.27358 0.27358 -4.26121e+06) (34.1771 34.1771 -2.50131e+06) (49.6185 49.6185 -1.7093e+06) (1.55335 1.55335 -2.19847e+06) (-15.3091 -15.3091 -3.00018e+06)
2650          (-7.69584 -7.69585 -1.15356e+06) (-2.66873 -2.66873 -1.14976e+06) (14.1644 14.1644 -1.14043e+06) (-14.5729 -14.5729 -1.12745e+06) (8.57625 8.57625 -1.10903e+06) (-1.07881 -1.07881 -2.24422e+06) (-29.6607 -29.6607 -4.26368e+06) (17.2176 17.2176 -2.54233e+06) (6.51549 6.51549 -1.74386e+06) (0.761252 0.761251 -2.20041e+06) (-23.8625 -23.8625 -2.97425e+06)
2700          (4.93925 4.93925 -1.14421e+06) (-1.14627 -1.14627 -1.1405e+06) (-1.633 -1.633 -1.13143e+06) (2.59023 2.59023 -1.11887e+06) (22.5678 22.5678 -1.10102e+06) (-13.0041 -13.0041 -2.22873e+06) (25.2161 25.2161 -4.26551e+06) (-70.7064 -70.7064 -2.5818e+06) (-64.3529 -64.3529 -1.77792e+06) (-7.28008 -7.28008 -2.20262e+06) (7.62349 7.62349 -2.94924e+06)
2750          (11.4414 11.4414 -1.13515e+06) (-2.44641 -2.44641 -1.13161e+06) (2.3473 2.3473 -1.12272e+06) (-1.84835 -1.84835 -1.11035e+06) (-11.7202 -11.7202 -1.09317e+06) (-34.9316 -34.9316 -2.21385e+06) (0.833932 0.833932 -4.26684e+06) (89.2426 89.2426 -2.61981e+06) (73.4864 73.4864 -1.81144e+06) (11.2106 11.2106 -2.20506e+06) (-16.6161 -16.6161 -2.92516e+06)
2800          (4.58576 4.58576 -1.12636e+06) (-1.81199 -1.81199 -1.12294e+06) (1.97784 1.97784 -1.11428e+06) (-3.09548 -3.09548 -1.10217e+06) (-14.2872 -14.2872 -1.08548e+06) (-2.43879 -2.43879 -2.19928e+06) (12.8913 12.8913 -4.26756e+06) (91.027 91.027 -2.65655e+06) (61.7054 61.7054 -1.84438e+06) (6.90633 6.90633 -2.20778e+06) (-4.99402 -4.99402 -2.90192e+06)
2850          (5.20545 5.20545 -1.1178e+06) (-1.64411 -1.64411 -1.11447e+06) (1.8975 1.8975 -1.10605e+06) (-3.19764 -3.19764 -1.09425e+06) (-8.88635 -8.88635 -1.07802e+06) (-0.950345 -0.950345 -2.18509e+06) (13.1506 13.1506 -4.26777e+06) (78.7318 78.7318 -2.69203e+06) (44.9502 44.9502 -1.87686e+06) (3.39482 3.39482 -2.21075e+06) (-2.97235 -2.97235 -2.87954e+06)
2900          (5.66638 5.66638 -1.10946e+06) (-1.47458 -1.47458 -1.10622e+06) (1.79114 1.79114 -1.09803e+06) (-2.49424 -2.49424 -1.08654e+06) (-4.60678 -4.60678 -1.07077e+06) (2.8075 2.8075 -2.17129e+06) (12.2603 12.2603 -4.26753e+06) (62.4802 62.4802 -2.72625e+06) (27.1971 27.1971 -1.90883e+06) (0.341535 0.341535 -2.21398e+06) (-1.04375 -1.04375 -2.85796e+06)
2950          (5.66559 5.66559 -1.10135e+06) (-1.3815 -1.3815 -1.09819e+06) (1.62362 1.62362 -1.09022e+06) (-1.66142 -1.66142 -1.07905e+06) (-2.00951 -2.00951 -1.06371e+06) (1.81486 1.81486 -2.15783e+06) (9.36352 9.36352 -4.26688e+06) (47.8539 47.8539 -2.75924e+06) (13.8493 13.8493 -1.94027e+06) (-1.72746 -1.72746 -2.21745e+06) (-0.583766 -0.583766 -2.83716e+06)
3000          (5.65592 5.65592 -1.09345e+06) (-1.35449 -1.35449 -1.09038e+06) (1.45195 1.45195 -1.08261e+06) (-0.992523 -0.992523 -1.07175e+06) (-0.579176 -0.579176 -1.05683e+06) (0.295656 0.295656 -2.14472e+06) (5.76443 5.76443 -4.26585e+06) (35.1713 35.1713 -2.79105e+06) (3.95861 3.95861 -1.97118e+06) (-3.06003 -3.06003 -2.22116e+06) (-0.472897 -0.472897 -2.81713e+06)
3050          (5.53316 5.53316 -1.08575e+06) (-1.36114 -1.36114 -1.08276e+06) (1.31064 1.31064 -1.07521e+06) (-0.535475 -0.535475 -1.06464e+06) (0.111627 0.111627 -1.05013e+06) (-1.44864 -1.44864 -2.13194e+06) (2.17574 2.17574 -4.26448e+06) (24.6815 24.6815 -2.82171e+06) (-3.11694 -3.11694 -2.00154e+06) (-3.85118 -3.85118 -2.2251e+06) (-0.559006 -0.559006 -2.79784e+06)
3100          (5.38539 5.38539 -1.07826e+06) (-1.37878 -1.37878 -1.07535e+06) (1.19879 1.19879 -1.068e+06) (-0.249934 -0.249934 -1.05771e+06) (0.402279 0.402279 -1.04359e+06) (-3.00878 -3.00878 -2.11947e+06) (-1.06617 -1.06617 -4.26279e+06) (16.1806 16.1806 -2.85126e+06) (-8.05017 -8.05017 -2.03136e+06) (-4.27103 -4.27103 -2.22926e+06) (-0.705797 -0.705797 -2.77927e+06)
3150          (5.21898 5.21898 -1.07097e+06) (-1.3935 -1.3935 -1.06814e+06) (1.11273 1.11273 -1.06098e+06) (-0.0806921 -0.0806921 -1.05096e+06) (0.484055 0.484055 -1.03723e+06) (-4.2831 -4.2831 -2.10731e+06) (-3.86504 -3.86504 -4.26081e+06) (9.36068 9.36068 -2.87974e+06) (-11.4467 -11.4467 -2.06063e+06) (-4.46498 -4.46498 -2.23364e+06) (-0.852619 -0.852619 -2.76141e+06)
3200          (5.05074 5.05074 -1.06387e+06) (-1.39985 -1.39985 -1.06111e+06) (1.04655 1.04655 -1.05414e+06) (0.0148579 0.014858 -1.04439e+06) (0.46621 0.46621 -1.03102e+06) (-5.26987 -5.26987 -2.09545e+06) (-6.2319 -6.2319 -4.25856e+06) (3.93552 3.93552 -2.90718e+06) (-13.7362 -13.7362 -2.08936e+06) (-4.52726 -4.52726 -2.23823e+06) (-0.976704 -0.976705 -2.74423e+06)
3250          (5.6987 5.69871 -1.05707e+06) (-0.689721 -0.68972 -1.05425e+06) (4.69376 4.69376 -1.04799e+06) (-2.60994 -2.60994 -1.03815e+06) (-24.8216 -24.8216 -1.02461e+06) (-36.7693 -36.7693 -2.08403e+06) (-3.06893 -3.06893 -4.25615e+06) (22.6937 22.6937 -2.93384e+06) (28.1924 28.1924 -2.11766e+06) (5.94835 5.94835 -2.24302e+06) (-14.814 -14.814 -2.72768e+06)
3300          (-9.01102 -9.01102 -1.05068e+06) (-0.172056 -0.172056 -1.04788e+06) (-0.212446 -0.212446 -1.04167e+06) (-5.36669 -5.36669 -1.03193e+06) (8.34116 8.34117 -1.01857e+06) (-160.447 -160.447 -2.07186e+06) (-15.0156 -15.0156 -4.25337e+06) (30.6906 30.6906 -2.95933e+06) (40.9034 40.9034 -2.1453e+06) (9.77134 9.77134 -2.24799e+06) (-15.7482 -15.7482 -2.71182e+06)
3350          (1.15886 1.15886 -1.04434e+06) (-1.62937 -1.62937 -1.04158e+06) (-2.17428 -2.17428 -1.03545e+06) (-6.92541 -6.92541 -1.02588e+06) (4.1951 4.1951 -1.01278e+06) (-165.069 -165.069 -2.06062e+06) (-7.24575 -7.24575 -4.2503e+06) (15.8092 15.8092 -2.98388e+06) (20.9833 20.9833 -2.1724e+06) (5.13123 5.13123 -2.25315e+06) (-10.8298 -10.8298 -2.69658e+06)
3400          (-4.03586 -4.03586 -1.0381e+06) (3.11345 3.11345 -1.03538e+06) (3.9323 3.9323 -1.02937e+06) (0.847995 0.847995 -1.01998e+06) (10.0817 10.0817 -1.00715e+06) (78.4745 78.4745 -2.04992e+06) (-6.94157 -6.94157 -4.24699e+06) (6.56435 6.56435 -3.00754e+06) (8.30252 8.30252 -2.19897e+06) (1.84004 1.84004 -2.25848e+06) (-3.99379 -3.99379 -2.68195e+06)
3450          (1.71598 1.71598 -1.03197e+06) (-2.93991 -2.93991 -1.02931e+06) (-2.2394 -2.23939 -1.02341e+06) (-4.66523 -4.66523 -1.01423e+06) (-1.99129 -1.99129 -1.00168e+06) (-111.168 -111.168 -2.0392e+06) (9.51227 9.51227 -4.24351e+06) (2.80812 2.80812 -3.03032e+06) (4.54117 4.54117 -2.225e+06) (1.09475 1.09475 -2.26399e+06) (-6.85379 -6.85379 -2.66793e+06)
3500          (-4.24079 -4.24079 -1.02596e+06) (2.49774 2.49774 -1.02336e+06) (2.75746 2.75746 -1.01759e+06) (-2.29899 -2.29899 -1.00861e+06) (16.6219 16.6219 -996360) (50.0545 50.0545 -2.02906e+06) (-17.5017 -17.5017 -4.23984e+06) (7.83062 7.83062 -3.05226e+06) (6.69458 6.69458 -2.2505e+06) (1.9237 1.9237 -2.26965e+06) (-3.70871 -3.70871 -2.65449e+06)
3550          (2.21824 2.21824 -1.02009e+06) (-2.23363 -2.23363 -1.01754e+06) (-0.475054 -0.475053 -1.0119e+06) (-0.530242 -0.530241 -1.00313e+06) (-8.48122 -8.48122 -991147) (-89.8265 -89.8265 -2.01891e+06) (17.1312 17.1312 -4.23607e+06) (-0.709793 -0.709793 -3.07338e+06) (5.2617 5.2617 -2.27548e+06) (0.842329 0.842329 -2.27546e+06) (-6.26106 -6.26106 -2.64161e+06)
3600          (-2.50571 -2.50571 -1.01439e+06) (-0.0758081 -0.0758081 -1.0119e+06) (-1.09229 -1.09229 -1.00638e+06) (12.9232 12.9232 -997794) (16.0887 16.0887 -985996) (116.937 116.937 -2.00975e+06) (18.2029 18.2029 -4.23214e+06) (-21.668 -21.668 -3.09371e+06) (-35.0764 -35.0764 -2.29993e+06) (-10.9543 -10.9543 -2.28141e+06) (19.1455 19.1455 -2.62932e+06)
3650          (-3.62442 -3.62442 -1.00881e+06) (-7.026 -7.026 -1.00637e+06) (-10.2523 -10.2523 -1.00097e+06) (-8.98393 -8.98393 -992566) (-3.44367 -3.44367 -981055) (121.474 121.474 -2.00021e+06) (18.6699 18.6699 -4.22808e+06) (-22.5545 -22.5545 -3.1133e+06) (-36.4713 -36.4713 -2.32388e+06) (-11.6342 -11.6342 -2.28751e+06) (20.7307 20.7307 -2.61754e+06)
3700          (0.997238 0.997238 -1.00336e+06) (10.7957 10.7957 -1.00097e+06) (15.0746 15.0746 -995699) (14.9961 14.9961 -987475) (8.77435 8.77435 -976191) (118.959 118.959 -1.99081e+06) (20.8649 20.8649 -4.22393e+06) (-25.1135 -25.1135 -3.13216e+06) (-41.0576 -41.0576 -2.34733e+06) (-13.4168 -13.4168 -2.29373e+06) (20.7059 20.7059 -2.6063e+06)
3750          (-6.67081 -6.67081 -998025) (-5.07727 -5.07727 -995698) (-7.44651 -7.44651 -990492) (-8.94488 -8.94488 -982481) (-7.25357 -7.25357 -971575) (13.4026 13.4026 -1.98152e+06) (0.791465 0.791465 -4.21968e+06) (-2.3152 -2.3152 -3.15032e+06) (-3.75617 -3.75617 -2.37028e+06) (-1.15086 -1.15086 -2.30008e+06) (7.2683 7.2683 -2.59557e+06)
3800          (1.71147 1.71147 -992782) (5.31655 5.31655 -990485) (7.47862 7.47862 -985516) (6.7994 6.7994 -977624) (3.31526 3.31526 -966782) (96.3585 96.3585 -1.97266e+06) (18.0303 18.0303 -4.21537e+06) (-19.3907 -19.3907 -3.16779e+06) (-33.5287 -33.5287 -2.39272e+06) (-11.7827 -11.7827 -2.30654e+06) (16.2859 16.2859 -2.58534e+06)
3850          (-2.79065 -2.79065 -987725) (-2.6866 -2.6866 -985510) (-3.08027 -3.08027 -980464) (-1.25681 -1.25681 -972848) (2.04082 2.04082 -962456) (78.301 78.301 -1.96391e+06) (10.1888 10.1888 -4.21099e+06) (-11.9291 -11.9291 -3.18461e+06) (-20.3127 -20.3127 -2.41469e+06) (-7.20008 -7.20008 -2.31311e+06) (12.4623 12.4623 -2.57561e+06)
3900          (0.361393 0.361393 -982681) (2.84514 2.84514 -980479) (3.39605 3.39605 -975780) (2.30509 2.3051 -968214) (0.310308 0.310308 -957848) (87.2909 87.2909 -1.95535e+06) (17.4596 17.4596 -4.20656e+06) (-17.3076 -17.3076 -3.2008e+06) (-31.3916 -31.3916 -2.43616e+06) (-11.7366 -11.7366 -2.31977e+06) (14.3955 14.3955 -2.56635e+06)
3950          (-6.90517 -6.90517 -977872) (-5.60754 -5.60754 -975760) (-7.8813 -7.8813 -970908) (-7.16053 -7.16053 -963650) (-2.36018 -2.36018 -953732) (71.0117 71.0117 -1.947e+06) (10.3585 10.3585 -4.20206e+06) (-11.0998 -11.0998 -3.21638e+06) (-19.8237 -19.8237 -2.45718e+06) (-7.48895 -7.48895 -2.32653e+06) (11.4474 11.4474 -2.55756e+06)
4000          (2.92687 2.92687 -973038) (4.24956 4.24956 -970930) (5.56671 5.56671 -966458) (4.76789 4.76789 -959218) (2.05031 2.05031 -949314) (85.8294 85.8294 -1.93881e+06) (17.1654 17.1654 -4.19752e+06) (-15.6048 -15.6048 -3.23138e+06) (-29.7326 -29.7326 -2.47772e+06) (-11.808 -11.808 -2.33337e+06) (13.0134 13.0134 -2.54922e+06)
4050          (6.87327 6.87327 -968503) (-9.35719 -9.35719 -966455) (-11.7915 -11.7915 -961992) (-8.24893 -8.24893 -954925) (-2.83119 -2.83119 -945368) (48.9366 48.9366 -1.929e+06) (6.6135 6.6135 -4.19293e+06) (-6.83763 -6.83763 -3.24584e+06) (-12.4799 -12.4799 -2.49783e+06) (-4.93487 -4.93487 -2.3403e+06) (4.54244 4.54244 -2.54132e+06)
4100          (9.7668 9.7668 -963991) (-10.7315 -10.7315 -961985) (-12.5964 -12.5964 -957579) (-9.85645 -9.85645 -950717) (-5.11607 -5.11607 -941330) (55.0418 55.0418 -1.92108e+06) (5.71012 5.71012 -4.1883e+06) (-6.29993 -6.29993 -3.25973e+06) (-11.6719 -11.6719 -2.51746e+06) (-4.82928 -4.82928 -2.3473e+06) (4.70711 4.70711 -2.53386e+06)