# Probe 0 (0.0015 0.0015 0)
# Probe 1 (0.0015 0.0015 0.01)
# Probe 2 (0.0015 0.0015 0.02)
# Probe 3 (0.0015 0.0015 0.03)
# Probe 4 (0.0015 0.0015 0.04)
# Probe 5 (0.0015 0.0015 0.05)
# Probe 6 (0.0015 0.0015 0.06)
# Probe 7 (0.0015 0.0015 0.07)
# Probe 8 (0.0015 0.0015 0.08)
# Probe 9 (0.0015 0.0015 0.09)
# Probe 10 (0.0015 0.0015 0.1)
# Time        0             1             2             3             4             5             6             7             8             9             10           
50            (-0.0276762 -0.0276762 15312.3) (-0.000844244 -0.000844244 11384.3) (-0.00439873 -0.00439873 5602.8) (-0.00101139 -0.00101139 2068.16) (-0.00211729 -0.00211729 599.465) (0.00380965 0.00380965 64.8662) (8.94649e-05 8.94649e-05 -0.519729) (5.5168e-06 5.5168e-06 -0.00167896) (2.57388e-05 2.57388e-05 0.0117938) (-0.00205305 -0.00205305 17.3453) (0.00174899 0.00174899 6683.17)
100           (-0.00492465 -0.00492465 10896) (-0.0245918 -0.0245918 9645.62) (-0.00900799 -0.00900799 7011.33) (0.0049465 0.0049465 4031.42) (0.00590901 0.00590901 1881.01) (2.65649e-05 2.65649e-05 614.004) (-0.000747225 -0.000747225 -0.68227) (-0.000504846 -0.000504846 -0.00271365) (-2.36943e-05 -2.36943e-05 0.113269) (0.00120098 0.00120098 67.6758) (0.0419631 0.0419631 5337.81)
150           (0.0221245 0.0221245 8903.53) (0.0135181 0.0135181 8253.33) (0.00829534 0.00829534 6814.56) (0.00195113 0.00195113 4854.39) (-0.00150525 -0.00150525 2945.97) (0.118469 0.118469 1277.56) (-0.000741679 -0.000741679 3.50862) (-7.75859e-07 -7.75862e-07 -0.00620937) (-7.82441e-05 -7.82441e-05 0.559224) (-0.00836292 -0.00836292 143.731) (-0.00299683 -0.00299683 4552.36)
200           (0.0122857 0.0122857 7714.36) (0.0118806 0.0118806 7304.72) (0.0098724 0.0098724 6387.94) (0.0198314 0.0198314 5059.13) (-0.0475259 -0.0475259 3579.71) (0.221647 0.221647 1840.45) (0.000263004 0.000263004 17.4673) (1.92818e-06 1.92819e-06 0.0121235) (2.94988e-05 2.94988e-05 1.75596) (0.000314464 0.000314464 231) (0.0135914 0.0135914 4028.33)
250           (0.0104031 0.0104031 6909.25) (0.000588611 0.000588612 6624.59) (0.000347933 0.000347933 5985.52) (0.0103776 0.0103776 5033.72) (-0.0135504 -0.0135504 3901.08) (-0.0335208 -0.0335208 2233.95) (-0.00240508 -0.00240508 45.4752) (3.56711e-05 3.56711e-05 0.133097) (-0.000212963 -0.000212963 4.14979) (-0.00784077 -0.00784077 318.266) (-0.00462943 -0.00462943 3648.99)
300           (0.0122143 0.0122143 6324.25) (-0.0100022 -0.0100022 6114) (0.0115847 0.0115847 5641.39) (0.00738272 0.00738272 4926.59) (-0.0170031 -0.0170031 4041.95) (0.18798 0.18798 2483.16) (-0.00780793 -0.00780793 89.8802) (-6.23703e-05 -6.23704e-05 0.519047) (-0.000597568 -0.000597568 8.08746) (-0.0114556 -0.0114556 399.391) (0.0199835 0.0199835 3358.77)
350           (0.00478836 0.00478836 5878.25) (0.00541578 0.00541578 5715.89) (0.00168499 0.00168499 5350.66) (-0.0060987 -0.0060987 4792.47) (-0.000686845 -0.000686845 4083.17) (-0.0420118 -0.0420118 2631.28) (0.00910787 0.00910787 150.143) (0.000158474 0.000158474 1.41975) (0.000865481 0.000865481 13.7657) (0.00868009 0.00868009 471.768) (-0.00263781 -0.00263781 3127.82)
400           (0.0116036 0.0116036 5525.31) (0.00551136 0.00551136 5395.49) (-0.0160331 -0.0160331 5103.16) (0.0120097 0.0120097 4652.97) (-0.00833926 -0.00833926 4069.98) (-0.164797 -0.164797 2713.22) (-0.00425062 -0.00425062 223.814) (0.00302872 0.00302872 3.1558) (-0.00055708 -0.00055708 21.2126) (-0.0002453 -0.0002453 534.855) (-0.00179614 -0.00179614 2938.54)
450           (0.0142486 0.0142486 5237.46) (0.0149784 0.0149784 5130.63) (-0.0150956 -0.0150956 4889.87) (0.0044427 0.0044427 4516.85) (-0.000482648 -0.000482648 4027.17) (-0.137183 -0.137183 2752.58) (-0.00258757 -0.00258757 307.501) (0.00823308 0.00823308 6.08612) (-0.003374 -0.003374 30.3292) (-0.00127339 -0.00127339 589.121) (-0.000249358 -0.000249358 2779.76)
500           (0.0139686 0.0139686 4996.81) (0.00314632 0.00314632 4906.78) (-0.00675642 -0.00675642 4703.77) (-0.00413735 -0.00413735 4387.88) (0.0434247 0.0434247 3968.79) (0.121538 0.121538 2764.75) (-0.0157847 -0.0157847 397.579) (0.000600985 0.000600985 10.5654) (-0.00137294 -0.00137294 40.9247) (-0.00737164 -0.00737164 635.44) (0.00767839 0.00767839 2644.15)
550           (0.00631014 0.00631014 4791.38) (0.000641481 0.000641481 4714.02) (0.00569366 0.00569366 4539.5) (0.0106264 0.0106264 4267.09) (0.0117665 0.0117665 3901.65) (-0.246592 -0.246592 2760.32) (0.0237575 0.0237575 490.648) (0.00194759 0.00194759 16.9108) (0.00359119 0.00359119 52.7699) (0.0110619 0.0110619 674.814) (-0.00634099 -0.00634099 2526.53)
600           (0.00974518 0.00974518 4612.88) (0.00608924 0.00608924 4545.33) (0.00841186 0.00841186 4392.95) (0.00726272 0.00726272 4154.5) (0.00632906 0.00632906 3832.77) (-0.235349 -0.235349 2744.09) (0.0253151 0.0253151 583.92) (0.00272802 0.00272802 25.3761) (0.00418304 0.00418304 65.6253) (0.0104596 0.0104596 708.179) (-0.00730788 -0.00730788 2423.33)
650           (0.0115039 0.0115039 4455.74) (0.00834594 0.00834594 4395.98) (0.0134324 0.0134324 4261.18) (0.0265055 0.0265055 4049.73) (0.0224654 0.0224654 3761.63) (-0.168144 -0.168144 2720.84) (0.0169196 0.0169196 675.099) (0.00223458 0.00223458 36.1299) (0.00300528 0.00300528 79.2644) (0.00652258 0.00652258 736.403) (-0.0143776 -0.0143776 2331.83)
700           (-0.00815936 -0.00815936 4315.76) (0.0109521 0.0109521 4262.26) (0.0252505 0.0252505 4141.62) (0.0281352 0.0281352 3952.1) (0.00831574 0.00831574 3692.95) (-0.155338 -0.155338 2693.03) (0.0158877 0.0158877 762.693) (0.00271619 0.00271619 49.262) (0.00313888 0.00313888 93.5001) (0.00556471 0.00556471 760.258) (-0.0120683 -0.0120683 2249.94)
750           (0.00624029 0.00624029 4189.64) (-0.00204561 -0.00204561 4141.33) (-0.010394 -0.010394 4032.42) (-0.0119467 -0.0119467 3861.2) (-0.0196547 -0.0196547 3626.75) (0.143983 0.143983 2662.22) (-0.00818965 -0.00818965 845.666) (-0.00231881 -0.00231881 64.7615) (-0.00199818 -0.00199818 108.163) (-0.00210502 -0.00210502 780.39) (-0.0109975 -0.0109975 2176.12)
800           (0.0167096 0.0167096 4075.17) (-0.00443459 -0.00443459 4031.2) (0.00674162 0.00674162 3932.12) (0.00461478 0.00461478 3776.15) (0.0223496 0.0223496 3561.63) (-0.307856 -0.307856 2630.74) (0.0104613 0.0104613 923.479) (0.00443316 0.00443316 82.6207) (0.0060352 0.0060352 123.16) (0.0063646 0.0063646 797.348) (-0.0139664 -0.0139664 2109.09)
850           (0.0152686 0.0152686 3970.48) (-0.00613633 -0.00613633 3930.22) (0.00783905 0.00783905 3839.5) (0.00338538 0.00338538 3696.66) (0.0217048 0.0217048 3499.86) (-0.281367 -0.281367 2598.14) (0.00882536 0.00882536 995.711) (0.00152417 0.00152417 102.648) (0.00477167 0.00477167 138.36) (0.00530663 0.00530663 811.608) (-0.0125542 -0.0125542 2047.91)
900           (0.01396 0.01396 3874.19) (-0.00593918 -0.00593918 3837.11) (0.00722893 0.00722893 3753.6) (0.00372426 0.00372426 3622.07) (0.0202441 0.0202441 3440.61) (-0.260451 -0.260451 2565.38) (0.00816194 0.00816194 1062.38) (0.000916153 0.000916153 124.691) (0.00338888 0.00338888 153.704) (0.00424365 0.00424365 823.568) (-0.0113661 -0.0113661 1991.76)
950           (0.0178742 0.0178742 3785.37) (-0.000844365 -0.000844365 3751.03) (-0.0143552 -0.0143552 3673.71) (-0.0309825 -0.0309825 3551.86) (-0.023932 -0.023932 3384.01) (0.18693 0.18693 2532.75) (-0.011121 -0.011121 1123.64) (-0.0050771 -0.0050771 148.544) (-0.00352487 -0.00352487 169.144) (-0.00276769 -0.00276769 833.566) (0.0104157 0.0104157 1939.98)
1000          (0.00906246 0.00906246 3702.82) (0.0129913 0.0129913 3670.86) (-0.00390215 -0.00390215 3598.95) (-0.0309208 -0.0309208 3485.64) (-0.0664348 -0.0664348 3329.55) (0.150437 0.150437 2500.6) (-0.00785511 -0.00785511 1179.7) (-0.00664405 -0.00664405 174.003) (-0.00411885 -0.00411885 184.653) (-0.00291806 -0.00291806 841.88) (0.00817637 0.00817637 1892.04)
1050          (-0.00434841 -0.00434841 3625.79) (0.0233476 0.0233476 3595.95) (0.0119409 0.0119409 3528.85) (-0.0156263 -0.0156263 3423.13) (-0.0649415 -0.0649415 3277.42) (0.151596 0.151596 2469.01) (-0.00147982 -0.00147982 1230.82) (-0.00508828 -0.00508828 200.837) (-0.00178211 -0.00178211 200.212) (-0.00174042 -0.00174042 848.754) (0.00787815 0.00787815 1847.5)
1100          (-0.00982246 -0.00982246 3553.68) (0.0251833 0.0251833 3525.73) (0.0169004 0.0169004 3462.92) (-0.00383558 -0.00383557 3363.95) (-0.0556252 -0.0556252 3227.48) (0.143593 0.143593 2438.11) (0.000732005 0.000732004 1277.33) (-0.0041968 -0.00419681 228.818) (-0.000211275 -0.000211276 215.812) (-0.00130844 -0.00130844 854.396) (0.00757087 0.00757087 1805.95)
1150          (-0.0093093 -0.0093093 3486.04) (0.0247353 0.0247353 3459.78) (0.020227 0.020227 3400.8) (-0.0137661 -0.0137661 3307.91) (0.0123773 0.0123773 3180.17) (0.19959 0.19959 2408.35) (-0.00769816 -0.00769816 1319.59) (0.000725894 0.000725894 257.721) (0.000562063 0.000562063 231.447) (0.00159259 0.00159259 858.986) (0.00634031 0.00634031 1767.09)
1200          (0.00906228 0.00906228 3422.43) (0.00837746 0.00837746 3397.67) (0.0137437 0.0137437 3342.06) (-0.00919751 -0.00919751 3254.48) (0.0771003 0.0771003 3133.95) (-0.00517148 -0.00517148 2378.68) (-0.0062676 -0.0062676 1357.94) (-0.00527825 -0.00527825 287.338) (0.00186735 0.00186735 247.111) (0.00255309 0.00255309 862.676) (-0.0034048 -0.0034048 1730.65)
1250          (0.0521708 0.0521708 3362.3) (-0.0287507 -0.0287507 3338.92) (0.0220135 0.0220135 3286.38) (0.00774575 0.00774575 3203.66) (0.0449832 0.0449832 3089.8) (0.0174922 0.0174922 2350.05) (-0.00564278 -0.00564278 1392.71) (-0.00779565 -0.00779565 317.483) (0.0022747 0.0022747 262.813) (0.00326448 0.00326448 865.6) (-0.00438753 -0.00438753 1696.37)
1300          (0.0281319 0.0281319 3305.39) (-0.0340245 -0.0340245 3283.25) (0.0387018 0.0387018 3233.51) (-0.00171537 -0.00171537 3155.26) (0.0474964 0.0474964 3047.66) (0.00438666 0.00438666 2322.57) (-0.0039228 -0.0039228 1424.18) (-0.00439561 -0.00439561 347.981) (0.00294419 0.00294419 278.557) (0.00398357 0.00398357 867.87) (0.0049735 0.0049735 1664.03)
1350          (0.0173715 0.0173715 3251.42) (-0.0281349 -0.0281349 3230.4) (0.0322506 0.0322506 3183.23) (-0.0282436 -0.0282436 3109.05) (0.000687237 0.000687237 3007.04) (-0.0311611 -0.0311611 2295.65) (0.00240428 0.00240428 1452.66) (0.00187465 0.00187465 378.651) (0.00144134 0.00144134 294.335) (0.000868996 0.000868995 869.589) (0.00559311 0.00559311 1633.5)
1400          (0.015205 0.015205 3200.12) (-0.0303394 -0.0303394 3180.14) (0.0298927 0.0298927 3135.32) (-0.0254648 -0.0254648 3064.86) (-0.00703416 -0.00703416 2967.96) (-0.030442 -0.030442 2269.49) (0.00297696 0.00297696 1478.41) (0.00285597 0.00285597 409.356) (0.00142827 0.00142827 310.146) (0.000326146 0.000326146 870.842) (0.00511712 0.00511712 1604.6)
1450          (0.0165476 0.0165476 3151.28) (-0.0335294 -0.0335294 3132.26) (0.0270481 0.0270481 3089.61) (-0.0151771 -0.0151771 3022.56) (-0.0150978 -0.0150978 2930.35) (-0.0278116 -0.0278116 2244.12) (0.00290859 0.00290859 1501.69) (0.00294817 0.00294817 439.966) (0.00145235 0.00145235 325.989) (0.0002128 0.0002128 871.707) (0.00481902 0.00481902 1577.18)
1500          (0.0166219 0.0166219 3104.71) (-0.03322 -0.03322 3086.57) (0.020899 0.020899 3045.92) (-0.00336409 -0.00336409 2982.02) (-0.0224424 -0.0224424 2894.14) (-0.0249009 -0.0249009 2219.5) (0.00276468 0.00276468 1522.71) (0.00291568 0.00291568 470.367) (0.0014591 0.0014591 341.859) (0.000152292 0.000152292 872.251) (0.00457051 0.00457051 1551.14)
1550          (0.0153234 0.0153234 3060.25) (-0.0302589 -0.0302589 3042.93) (0.0151877 0.0151877 3004.11) (0.00389195 0.00389195 2943.12) (-0.025974 -0.025974 2859.26) (-0.0241712 -0.0241712 2195.62) (0.00268617 0.00268617 1541.7) (0.00291796 0.00291796 500.459) (0.00148674 0.00148674 357.751) (9.93981e-05 9.93981e-05 872.532) (0.00429814 0.00429814 1526.36)
1600          (0.00891118 0.00891119 3017.88) (0.00558571 0.00558571 3001.29) (-0.0020565 -0.0020565 2964.13) (0.0138507 0.0138507 2905.71) (-0.044419 -0.044419 2825.56) (-0.0910712 -0.0910712 2172.3) (-0.00518594 -0.00518594 1558.85) (-0.00359759 -0.00359759 530.129) (-0.00341501 -0.00341501 373.64) (-0.00210391 -0.00210391 872.61) (0.00207618 0.00207618 1502.75)
1650          (0.0156285 0.0156285 2977.25) (0.00470396 0.00470396 2961.33) (0.000923385 0.000923384 2925.7) (0.0195318 0.0195318 2869.72) (-0.0426771 -0.0426771 2792.96) (-0.0693881 -0.0693881 2149.68) (-0.00548188 -0.00548188 1574.35) (0.00163972 0.00163972 559.343) (-0.00283584 -0.00283584 389.54) (-0.00248505 -0.00248505 872.521) (0.00151974 0.00151974 1480.22)
1700          (0.0166426 0.0166426 2938.24) (0.00767873 0.00767873 2922.96) (0.00609803 0.00609803 2888.79) (0.0179334 0.0179334 2835.12) (-0.0357842 -0.0357842 2761.56) (-0.0538327 -0.0538327 2127.82) (-0.00666594 -0.00666594 1588.33) (0.00409688 0.00409688 588.037) (-0.000937546 -0.000937546 405.434) (-0.00205036 -0.00205036 872.305) (0.0013766 0.0013766 1458.7)
1750          (0.0136248 0.0136248 2900.78) (0.0106974 0.0106974 2886.11) (0.00978775 0.00978775 2853.31) (0.0170723 0.0170723 2801.82) (-0.0324915 -0.0324915 2731.26) (-0.0432496 -0.0432496 2106.64) (-0.00765559 -0.00765559 1600.93) (0.0051784 0.0051784 616.16) (0.00125333 0.00125333 421.313) (-0.00128415 -0.00128415 871.998) (0.00135086 0.00135086 1438.11)
1800          (0.00926836 0.00926836 2864.79) (0.0131365 0.0131365 2850.68) (0.0116675 0.0116675 2819.18) (0.0162114 0.0162114 2769.74) (-0.0303379 -0.0303379 2702) (-0.0360911 -0.0360911 2086.1) (-0.00850729 -0.00850729 1612.26) (0.00560967 0.00560967 643.673) (0.00328217 0.00328217 437.165) (-0.00032063 -0.00032063 871.632) (0.001392 0.001392 1418.4)
1850          (0.00523625 0.00523625 2830.17) (0.0146973 0.0146973 2816.6) (0.0123015 0.0123015 2786.32) (0.0150941 0.0150941 2738.81) (-0.0285837 -0.0285837 2673.71) (-0.0306589 -0.0306589 2066.16) (-0.00926174 -0.00926174 1622.45) (0.00567714 0.00567714 670.544) (0.00501324 0.00501324 452.979) (0.000719546 0.000719546 871.232) (0.00148111 0.00148111 1399.51)
1900          (0.00223622 0.00223622 2796.85) (0.0153754 0.0153754 2783.79) (0.0121046 0.0121046 2754.65) (0.0137726 0.0137726 2708.95) (-0.0270473 -0.0270473 2646.35) (-0.0260991 -0.0260991 2046.8) (-0.00992843 -0.00992843 1631.59) (0.00551643 0.00551643 696.75) (0.00642449 0.00642449 468.741) (0.00174349 0.00174349 870.824) (0.00159467 0.00159467 1381.4)
1950          (0.000406963 0.000406966 2764.76) (0.0153052 0.0153052 2752.17) (0.0113505 0.0113505 2724.12) (0.0123547 0.0123547 2680.13) (-0.0256637 -0.0256637 2619.86) (-0.022066 -0.022066 2028.01) (-0.010505 -0.010505 1639.78) (0.00520463 0.00520463 722.273) (0.00752967 0.00752967 484.44) (0.00268822 0.00268822 870.426) (0.00171191 0.00171191 1364)
2000          (0.00127943 0.00127943 2733.87) (-0.00124974 -0.00124974 2721.75) (-0.0130457 -0.0130457 2694.7) (0.0234804 0.0234804 2652.27) (-0.0498454 -0.0498454 2593.93) (-0.366467 -0.366467 2009.67) (-4.88415e-05 -4.88415e-05 1647.09) (0.013749 0.013749 747.111) (0.0100568 0.0100568 500.073) (0.000672468 0.000672468 870.059) (-0.00556441 -0.00556441 1347.3)
2050          (-6.16779e-05 -6.16781e-05 2704.1) (-0.0112713 -0.0112713 2692.39) (-0.00616879 -0.00616879 2666.26) (0.0271462 0.0271462 2625.27) (-0.0467075 -0.0467075 2568.95) (-0.350284 -0.350284 1991.8) (0.000803579 0.000803579 1653.62) (0.0115397 0.0115397 771.236) (0.00856775 0.00856775 515.607) (0.000607861 0.000607861 869.735) (-0.00521298 -0.00521298 1331.24)
2100          (0.000363732 0.000363731 2675.51) (-0.00107051 -0.00107051 2664.06) (0.00358032 0.00358032 2638.96) (0.02042 0.02042 2599.28) (-0.0553891 -0.0553891 2544.61) (-0.0262064 -0.0262064 1974.31) (-0.00255672 -0.00255672 1659.44) (0.016503 0.016503 794.655) (0.0126695 0.0126695 531.041) (0.00100531 0.00100531 869.467) (-0.0067108 -0.0067108 1315.8)
2150          (0.00650111 0.00650111 2647.94) (0.00685261 0.00685261 2636.57) (-0.000496558 -0.000496558 2611.84) (0.0036307 0.0036307 2574.67) (0.0187882 0.0187882 2520.73) (-0.0477304 -0.0477304 1957.31) (-0.000336353 -0.000336353 1664.59) (0.0141853 0.0141853 817.375) (0.011159 0.011159 546.368) (0.000928353 0.000928353 869.266) (-0.0038853 -0.0038853 1300.94)
2200          (0.00339088 0.00339088 2621.03) (-0.00252588 -0.00252588 2610.32) (-0.0185035 -0.0185035 2586.24) (0.0214539 0.0214539 2549.8) (0.0170221 0.0170221 2498.73) (-0.345783 -0.345783 1941.31) (0.000457525 0.000457525 1669.16) (0.0235234 0.0235234 839.396) (0.0189684 0.0189684 561.568) (0.0012899 0.0012899 869.142) (-0.00839552 -0.00839552 1286.63)
2250          (0.0130377 0.0130377 2595.12) (0.00431717 0.00431717 2584.74) (-0.046026 -0.046026 2561.23) (0.0249451 0.0249451 2526.29) (0.0312408 0.0312408 2476.91) (-0.113815 -0.113815 1925.39) (-0.000685833 -0.000685833 1673.19) (0.016521 0.016521 860.725) (0.0137791 0.0137791 576.634) (0.00127571 0.00127571 869.102) (-0.00578908 -0.00578908 1272.85)
2300          (0.000297569 0.000297568 2569.94) (0.0144053 0.0144053 2559.92) (-0.0166657 -0.0166657 2537.29) (0.0182901 0.0182901 2503.23) (0.00179241 0.00179241 2455.47) (-0.203384 -0.203384 1909.98) (-0.00280729 -0.00280729 1676.7) (0.0251092 0.0251092 881.373) (0.0209639 0.0209639 591.56) (0.00212279 0.00212279 869.153) (-0.00672961 -0.00672961 1259.57)
2350          (0.0261065 0.0261065 2545.91) (0.000114493 0.000114493 2536.03) (-0.00187642 -0.00187642 2513.51) (-0.0115494 -0.0115494 2481.28) (0.079263 0.079263 2434.85) (-0.0431588 -0.0431588 1894.6) (-0.00190503 -0.00190503 1679.74) (0.00395633 0.00395633 901.347) (0.00439849 0.00439849 606.332) (0.00106054 0.00106054 869.299) (0.00438723 0.00438723 1246.79)
2400          (0.0189732 0.0189732 2522.09) (0.00103081 0.00103081 2512.66) (0.000950001 0.00095 2491.61) (0.0150413 0.0150413 2459.48) (-0.0298762 -0.0298762 2414.91) (0.117301 0.117301 1880.1) (0.00376477 0.00376477 1682.37) (-0.0310645 -0.0310645 920.662) (-0.0330357 -0.0330357 620.945) (-0.00414695 -0.00414695 869.546) (0.00196982 0.00196982 1234.46)
2450          (-0.000412262 -0.000412263 2499.36) (-0.00340388 -0.00340388 2490.22) (0.0219379 0.0219379 2469.61) (-0.00342508 -0.00342508 2438.58) (0.0342289 0.0342289 2395.08) (0.0659765 0.0659765 1866.04) (0.00189941 0.00189941 1684.6) (-0.00483289 -0.00483289 939.341) (0.0033061 0.0033061 635.383) (-0.000302724 -0.000302724 869.893) (-0.000970438 -0.000970438 1222.57)
2500          (0.00106032 0.00106032 2477.43) (-0.00113128 -0.00113128 2468.57) (-0.0146868 -0.0146868 2448.32) (-0.0112427 -0.0112428 2418.4) (-0.0142504 -0.0142504 2376.28) (-0.0501484 -0.0501484 1852.16) (-0.00355258 -0.00355258 1686.49) (0.013342 0.013342 957.384) (0.0121417 0.0121417 649.657) (0.00166451 0.00166451 870.344) (-0.00481246 -0.00481246 1211.1)
2550          (0.0233924 0.0233924 2456.34) (0.00489527 0.00489527 2447.8) (0.000745073 0.000745072 2427.3) (0.0335434 0.0335434 2398.65) (-0.0985377 -0.0985377 2357.53) (0.140652 0.140652 1838.25) (-0.00207923 -0.00207923 1688.04) (0.0306761 0.0306761 974.809) (0.0284466 0.0284466 663.739) (0.000610087 0.000610088 870.904) (0.00725643 0.00725643 1200.05)
2600          (0.0120665 0.0120665 2435.64) (0.00420768 0.00420768 2427.45) (0.0190876 0.0190876 2407.35) (-0.0311969 -0.0311969 2379.46) (0.0318288 0.0318288 2339.8) (0.315793 0.315793 1824.86) (-0.000108458 -0.000108458 1689.32) (-0.0135492 -0.0135492 991.623) (-0.0196708 -0.0196708 677.638) (-0.000615814 -0.000615814 871.563) (0.00606915 0.00606915 1189.39)
2650          (0.016115 0.016115 2415.55) (0.00558828 0.00558828 2407.57) (-0.02966 -0.02966 2388.06) (0.0305155 0.0305155 2360.87) (-0.0179586 -0.0179586 2322.29) (0.00225901 0.00225902 1812.31) (0.0117587 0.0117587 1690.3) (-0.00682575 -0.00682575 1007.89) (-0.00258301 -0.00258301 691.339) (-0.000301792 -0.000301791 872.333) (0.00946007 0.00946007 1179.12)
2700          (-0.0103427 -0.0103427 2395.96) (0.00240028 0.00240028 2388.18) (0.00341948 0.00341948 2369.2) (-0.00542391 -0.00542391 2342.9) (-0.0472566 -0.0472566 2305.52) (0.0272305 0.0272305 1799.76) (-0.00999671 -0.00999671 1691.02) (0.0280309 0.0280309 1023.53) (0.0255121 0.0255121 704.843) (0.00288613 0.00288613 873.208) (-0.00302227 -0.00302227 1169.2)
2750          (-0.0239582 -0.0239582 2376.99) (0.00512274 0.00512274 2369.57) (-0.00491522 -0.00491522 2350.96) (0.00387043 0.00387043 2325.07) (0.0245419 0.0245419 2289.09) (0.0731464 0.0731464 1787.71) (-0.000330605 -0.000330605 1691.55) (-0.0353795 -0.0353795 1038.6) (-0.0291331 -0.0291331 718.129) (-0.00444434 -0.00444434 874.178) (0.00658731 0.00658731 1159.65)
2800          (-0.00960252 -0.00960252 2358.58) (0.00379429 0.00379429 2351.42) (-0.00414156 -0.00414156 2333.29) (0.0064819 0.0064819 2307.92) (0.0299172 0.0299172 2272.98) (0.0051068 0.0051068 1775.94) (-0.00511064 -0.00511064 1691.84) (-0.0360868 -0.0360868 1053.17) (-0.0244626 -0.0244626 731.189) (-0.00273795 -0.00273795 875.255) (0.00197983 0.00197983 1150.44)
2850          (-0.0109001 -0.0109001 2340.65) (0.00344275 0.00344275 2333.68) (-0.00397334 -0.00397334 2316.05) (0.00669581 0.00669581 2291.34) (0.0186079 0.0186079 2257.37) (0.00199001 0.00199001 1764.46) (-0.00521342 -0.00521342 1691.92) (-0.0312125 -0.0312125 1067.23) (-0.0178201 -0.0178201 744.065) (-0.00134585 -0.00134585 876.434) (0.00117836 0.00117836 1141.57)
2900          (-0.0118653 -0.0118653 2323.2) (0.00308774 0.00308774 2316.41) (-0.00375063 -0.00375063 2299.25) (0.00522292 0.00522292 2275.21) (0.00964655 0.00964655 2242.18) (-0.00587887 -0.00587887 1753.3) (-0.0048605 -0.0048605 1691.83) (-0.0247697 -0.0247697 1080.8) (-0.0107821 -0.0107821 756.74) (-0.000135398 -0.000135399 877.713) (0.000413784 0.000413784 1133.01)
2950          (-0.0118637 -0.0118637 2306.21) (0.00289285 0.00289285 2299.6) (-0.00339985 -0.00339985 2282.9) (0.00347899 0.00347899 2259.51) (0.00420788 0.00420788 2227.39) (-0.00380029 -0.00380029 1742.42) (-0.00371209 -0.00371209 1691.57) (-0.0189713 -0.0189713 1093.88) (-0.00549044 -0.00549044 769.205) (0.000684835 0.000684835 879.089) (0.000231429 0.000231429 1124.77)
3000          (-0.0118434 -0.0118434 2289.66) (0.00283629 0.00283629 2283.23) (-0.00304036 -0.00304036 2266.98) (0.00207833 0.00207833 2244.22) (0.00121279 0.00121279 2212.99) (-0.0006191 -0.000619101 1731.82) (-0.00228526 -0.00228526 1691.16) (-0.0139434 -0.0139434 1106.49) (-0.00156936 -0.00156936 781.457) (0.00121312 0.00121312 880.56) (0.000187476 0.000187476 1116.83)
3050          (-0.0115864 -0.0115864 2273.55) (0.00285022 0.00285022 2267.3) (-0.00274446 -0.00274446 2251.48) (0.00112128 0.00112128 2229.33) (-0.000233745 -0.000233745 2198.95) (0.00303343 0.00303343 1721.49) (-0.000862552 -0.000862552 1690.61) (-0.00978477 -0.00978477 1118.64) (0.00123568 0.00123568 793.493) (0.00152677 0.00152677 882.122) (0.000221613 0.000221613 1109.18)
3100          (-0.0112769 -0.0112769 2257.87) (0.00288715 0.00288715 2251.78) (-0.00251025 -0.00251025 2236.38) (0.000523358 0.000523358 2214.83) (-0.000842367 -0.000842366 2185.27) (0.00630034 0.00630034 1711.41) (0.000422674 0.000422674 1689.94) (-0.00641466 -0.00641466 1130.36) (0.00319142 0.00319142 805.314) (0.00169321 0.00169321 883.772) (0.000279807 0.000279807 1101.82)
3150          (-0.0109285 -0.0109285 2242.6) (0.00291797 0.00291797 2236.67) (-0.00233003 -0.00233003 2221.68) (0.000168968 0.000168968 2200.7) (-0.00101361 -0.0010136 2171.94) (0.00896876 0.00896875 1701.57) (0.00153226 0.00153226 1689.16) (-0.00371096 -0.00371096 1141.65) (0.00453795 0.00453795 816.919) (0.0017701 0.0017701 885.508) (0.000338013 0.000338013 1094.74)
3200          (-0.0105762 -0.0105762 2227.73) (0.00293126 0.00293126 2221.95) (-0.00219145 -0.00219145 2207.35) (-3.11123e-05 -3.11123e-05 2186.94) (-0.000976238 -0.000976238 2158.94) (0.011035 0.011035 1691.98) (0.00247058 0.00247058 1688.27) (-0.0015602 -0.0015602 1152.53) (0.0054456 0.0054456 828.307) (0.00179479 0.00179479 887.325) (0.000387206 0.000387206 1087.92)
3250          (-0.011933 -0.011933 2213.5) (0.00144427 0.00144426 2207.58) (-0.00982867 -0.00982868 2194.47) (0.00546519 0.00546519 2173.87) (0.0519762 0.0519762 2145.51) (0.0769945 0.0769945 1682.42) (0.00121665 0.00121665 1687.31) (-0.00899674 -0.00899674 1163.09) (-0.0111766 -0.0111766 839.527) (-0.00235817 -0.00235817 889.225) (0.00587286 0.00587286 1081.37)
3300          (0.018869 0.018869 2200.1) (0.000360282 0.000360283 2194.25) (0.00044486 0.00044486 2181.23) (0.0112378 0.0112378 2160.85) (-0.0174663 -0.0174663 2132.88) (0.335973 0.335973 1672.69) (0.00595279 0.00595279 1686.21) (-0.012167 -0.012167 1173.2) (-0.0162158 -0.0162158 850.485) (-0.00387376 -0.00387376 891.197) (0.00624325 0.00624325 1075.08)
3350          (-0.00242663 -0.00242664 2186.84) (0.00341187 0.00341187 2181.06) (0.00455292 0.00455292 2168.22) (0.0145017 0.0145017 2148.18) (-0.00878448 -0.00878448 2120.74) (0.345651 0.345651 1663.61) (0.00287251 0.00287251 1684.99) (-0.00626741 -0.00626741 1182.94) (-0.00831863 -0.00831863 861.23) (-0.00203423 -0.00203423 893.242) (0.00429337 0.00429337 1069.03)
3400          (0.00845104 0.00845104 2173.76) (-0.00651953 -0.00651953 2168.08) (-0.00823419 -0.00823419 2155.48) (-0.00177569 -0.00177569 2135.83) (-0.0211109 -0.0211109 2108.96) (-0.164324 -0.164324 1655.08) (0.00275193 0.00275193 1683.68) (-0.00260238 -0.00260238 1192.31) (-0.00329146 -0.00329146 871.761) (-0.000729467 -0.000729467 895.356) (0.0015833 0.0015833 1063.24)
3450          (-0.00359323 -0.00359323 2160.93) (0.00615614 0.00615613 2155.35) (0.00468926 0.00468926 2143.01) (0.00976893 0.00976893 2123.79) (0.00416974 0.00416974 2097.5) (0.232784 0.232784 1646.34) (-0.00377106 -0.00377106 1682.3) (-0.00111325 -0.00111325 1201.34) (-0.00180031 -0.00180031 882.081) (-0.000434005 -0.000434005 897.537) (0.00271713 0.00271713 1057.68)
3500          (0.00888016 0.00888016 2148.35) (-0.00523024 -0.00523024 2142.9) (-0.00577408 -0.00577408 2130.82) (0.00481406 0.00481406 2112.01) (-0.0348061 -0.0348061 2086.37) (-0.104813 -0.104813 1638.21) (0.0069384 0.0069384 1680.85) (-0.00310438 -0.00310438 1210.04) (-0.00265401 -0.00265401 892.191) (-0.000762635 -0.000762635 899.781) (0.00147028 0.00147028 1052.35)
3550          (-0.00464496 -0.00464496 2136.05) (0.0046772 0.00467719 2130.71) (0.000994756 0.000994755 2118.91) (0.00111032 0.00111032 2100.55) (0.0177596 0.0177596 2075.45) (0.188095 0.188095 1629.94) (-0.0067915 -0.0067915 1679.35) (0.000281391 0.000281391 1218.41) (-0.00208595 -0.00208595 902.093) (-0.000333934 -0.000333934 902.085) (0.00248214 0.00248214 1047.24)
3600          (0.00524693 0.00524693 2124.12) (0.000158741 0.000158741 2118.9) (0.00228724 0.00228724 2107.34) (-0.027061 -0.027061 2089.37) (-0.0336895 -0.0336895 2064.66) (-0.244865 -0.244865 1622.26) (-0.00721637 -0.00721637 1677.79) (0.00859008 0.00859008 1226.48) (0.0139057 0.0139057 911.787) (0.00434274 0.00434274 904.447) (-0.00759006 -0.00759006 1042.37)
3650          (0.00758949 0.00758949 2112.44) (0.0147124 0.0147124 2107.33) (0.0214682 0.0214682 2096.01) (0.0188122 0.0188122 2078.42) (0.00721099 0.00721099 2054.32) (-0.254365 -0.254365 1614.5) (-0.00740153 -0.00740153 1676.19) (0.00894153 0.00894153 1234.24) (0.0144587 0.0144587 921.283) (0.00461227 0.00461227 906.864) (-0.00821852 -0.00821852 1037.7)
3700          (-0.0020882 -0.0020882 2101.02) (-0.0226061 -0.0226061 2096.02) (-0.0315661 -0.0315661 2084.98) (-0.0314016 -0.0314016 2067.76) (-0.0183734 -0.0183734 2044.13) (-0.249098 -0.249098 1606.93) (-0.0082717 -0.0082717 1674.54) (0.00995603 0.00995603 1241.72) (0.0162769 0.0162769 930.577) (0.00531896 0.00531896 909.331) (-0.00820866 -0.00820866 1033.24)
3750          (0.0139686 0.0139686 2089.85) (0.0106317 0.0106317 2084.98) (0.0155929 0.0155929 2074.08) (0.0187305 0.0187305 2057.3) (0.0151889 0.0151889 2034.46) (-0.0280648 -0.0280648 1599.43) (-0.000313769 -0.000313769 1672.86) (0.00091784 0.00091784 1248.92) (0.0014891 0.0014891 939.677) (0.000456247 0.000456247 911.847) (-0.00288145 -0.00288145 1028.99)
3800          (-0.00358379 -0.00358379 2078.87) (-0.0111328 -0.0111328 2074.06) (-0.0156601 -0.0156601 2063.66) (-0.0142379 -0.0142379 2047.13) (-0.00694211 -0.00694211 2024.43) (-0.201774 -0.201774 1592.3) (-0.00714797 -0.00714797 1671.15) (0.00768727 0.00768727 1255.84) (0.0132922 0.0132922 948.573) (0.00467116 0.00467116 914.407) (-0.00645639 -0.00645639 1024.94)
3850          (0.00584359 0.00584359 2068.28) (0.0056257 0.0056257 2063.64) (0.00645005 0.00645005 2053.08) (0.00263175 0.00263175 2037.13) (-0.00427345 -0.00427345 2015.37) (-0.163961 -0.163961 1585.22) (-0.00403925 -0.00403925 1669.41) (0.00472918 0.00472918 1262.51) (0.00805281 0.00805281 957.283) (0.00285441 0.00285441 917.011) (-0.00494057 -0.00494057 1021.08)
3900          (-0.000756753 -0.000756753 2057.72) (-0.00595769 -0.00595769 2053.11) (-0.00711129 -0.00711129 2043.27) (-0.00482684 -0.00482684 2027.43) (-0.000649781 -0.000649781 2005.72) (-0.182786 -0.182786 1578.34) (-0.00692172 -0.00692172 1667.65) (0.00686144 0.00686144 1268.93) (0.0124449 0.0124449 965.796) (0.00465286 0.00465286 919.652) (-0.00570697 -0.00570697 1017.41)
3950          (0.0144593 0.0144593 2047.65) (0.0117421 0.0117421 2043.23) (0.0165033 0.0165033 2033.07) (0.0149941 0.0149941 2017.87) (0.00494218 0.00494218 1997.1) (-0.148698 -0.148698 1571.56) (-0.00410654 -0.00410654 1665.87) (0.00440043 0.00440043 1275.11) (0.00785894 0.00785894 974.127) (0.00296893 0.00296893 922.332) (-0.00453821 -0.00453821 1013.92)
4000          (-0.00612883 -0.00612883 2037.53) (-0.00889852 -0.00889852 2033.12) (-0.0116566 -0.0116566 2023.75) (-0.00998391 -0.00998391 2008.59) (-0.00429333 -0.00429333 1987.85) (-0.179726 -0.179726 1564.99) (-0.00680505 -0.00680505 1664.07) (0.00618639 0.00618639 1281.05) (0.0117872 0.0117872 982.269) (0.0046812 0.0046812 925.044) (-0.00515905 -0.00515905 1010.62)