# Probe 0 (0.0015 0.0015 0)
# Probe 1 (0.0015 0.0015 0.002)
# Probe 2 (0.0015 0.0015 0.004)
# Probe 3 (0.0015 0.0015 0.006)
# Probe 4 (0.0015 0.0015 0.008)
# Probe 5 (0.0015 0.0015 0.01)
# Probe 6 (0.0015 0.0015 0.012)
# Probe 7 (0.0015 0.0015 0.014)
# Probe 8 (0.0015 0.0015 0.016)
# Probe 9 (0.0015 0.0015 0.018)
# Probe 10 (0.0015 0.0015 0.02)
# Time        0             1             2             3             4             5             6             7             8             9             10           
50            (-469.952 -33.2294 28298.4) (-469.952 -33.2294 28298.4) (22.5916 -17.8004 13901.6) (-2.43387 9.39337 4941.47) (0.608344 -4.76367 1741.8) (1.66589 -0.571014 548.405) (-7.25259 2.24694 175.093) (-3.08196 8.81571 -3.8121) (-5.14115 1.44646 -180.819) (3.01871 -4.7116 -602.513) (-6.5299 -5.49423 -1688.25)
100           (-1340.64 -66.9684 24669.9) (-1340.64 -66.9684 24669.9) (73.7234 -190.587 17772.3) (-12.035 54.8882 8523.88) (6.37431 -7.3117 3352.22) (5.52247 -0.0386994 1119.86) (-6.54639 2.96172 383.945) (-2.7842 8.95318 45.3534) (-5.32609 1.59748 -189.788) (4.29998 -7.75401 -643.509) (-12.9547 -13.1586 -1651.45)
150           (-1775 -95.7457 20976) (-1775 -95.7457 20976) (253.499 -210.916 18419.8) (3.87886 198.809 11571.2) (10.6117 -14.7422 5470.77) (12.7593 0.499888 1997.65) (-5.63115 4.45406 723.517) (-2.33759 9.17942 134.808) (-5.52405 1.71969 -186.329) (5.71606 -11.1853 -682.628) (-19.1926 -21.2164 -1608.53)
200           (-1977.54 -108.901 18292.5) (-1977.54 -108.901 18292.5) (295.36 -155.321 17601.8) (1.86359 411.16 13116.5) (-22.4526 -38.9254 7586.39) (24.5733 -0.233524 3164.58) (-4.86395 7.46323 1220.59) (-1.72717 9.65794 278.566) (-5.77131 1.80312 -162.849) (7.23562 -14.9572 -711.855) (-24.3243 -28.1703 -1559.68)
250           (-2101.15 -117.291 16393.4) (-2101.15 -117.291 16393.4) (296.479 -132.411 16431.9) (-8.80498 600.088 13521.1) (-121.747 -76.815 9217.49) (41.5031 -5.0143 4509.31) (-5.1775 13.3579 1896.69) (-0.954957 10.6955 495.19) (-6.12179 1.83003 -109.838) (8.8127 -19.027 -724.495) (-28.2235 -33.3813 -1504.16)
300           (-2188.41 -123.373 14961.9) (-2188.41 -123.373 14961.9) (301.131 -120.341 15348.7) (-8.26088 737.565 13317.9) (-243.401 -111.784 10204.9) (60.4254 -18.1092 5811.54) (-8.93042 24.1829 2743.35) (-0.11824 12.8914 805.519) (-6.6723 1.78348 -15.5599) (10.4405 -23.3915 -714.298) (-31.2117 -37.1087 -1440.18)
350           (-2254.83 -128.079 13834.8) (-2254.83 -128.079 13834.8) (306.346 -111.635 14429.2) (-7.39793 841.971 12881.1) (-342.326 -139.847 10644.5) (71.468 -38.9742 6856.64) (-20.7722 41.4166 3694.81) (0.438805 17.2993 1225.39) (-7.60707 1.64556 132.911) (12.1472 -28.0603 -674.542) (-33.6702 -39.9015 -1364.81)
400           (-2307.72 -131.83 12920.4) (-2307.72 -131.83 12920.4) (310.706 -104.709 13653.3) (-8.06191 926.782 12400.8) (-417.265 -164.327 10718) (67.0442 -58.9015 7555.99) (-46.8861 63.0863 4636.56) (-0.220726 25.492 1755.9) (-9.28489 1.40806 347.981) (14.0231 -33.1087 -597.671) (-35.9284 -42.27 -1273.93)
450           (-2351.06 -134.911 12160.5) (-2351.06 -134.911 12160.5) (314.261 -99.0335 12991.3) (-9.34324 997.414 11937.9) (-478.137 -186.481 10589.8) (50.8057 -70.8316 7935.93) (-90.5041 83.299 5457.96) (-4.01277 39.3411 2373.58) (-12.3213 1.05493 639.25) (16.1902 -38.6806 -474.925) (-38.2263 -44.5637 -1161.9)
500           (-2387.48 -137.506 11514.4) (-2387.48 -137.506 11514.4) (317.218 -94.2727 12416.4) (-10.7566 1057.45 11504.9) (-530.145 -206.378 10367.6) (31.0951 -76.0288 8072.53) (-148.57 97.7109 6095.91) (-13.8121 60.3663 3028.2) (-17.6428 0.540242 1008.84) (18.8061 -45.0245 -296.96) (-40.754 -47.0226 -1021.53)
550           (-2418.79 -139.742 10953.2) (-2418.79 -139.742 10953.2) (319.734 -90.1802 11908.4) (-12.1257 1109.57 11102) (-575.587 -224.292 10105.8) (12.8021 -79.4962 8048.76) (-214.116 107.395 6538.22) (-32.1314 88.6687 3657.29) (-26.3921 -0.25882 1446.17) (22.0741 -52.5088 -55.4502) (-43.6886 -49.8443 -844.269)
600           (-2446.24 -141.713 10456.2) (-2446.24 -141.713 10456.2) (321.902 -86.5915 11452.1) (-13.4318 1155.65 10726.4) (-615.898 -240.559 9829.4) (-2.99582 -83.7804 7932.19) (-279.929 115.627 6805.17) (-58.6006 122.89 4207.68) (-39.6106 -1.46506 1925.92) (26.2574 -61.5665 254.473) (-47.2041 -53.2186 -620.888)
650           (-2470.82 -143.475 10008.6) (-2470.82 -143.475 10008.6) (323.845 -83.3704 11036.6) (-14.6155 1197.22 10375.2) (-652.308 -255.53 9550.97) (-16.6843 -88.9091 7766.23) (-341.436 124.122 6932.22) (-89.2131 161.87 4649.29) (-58.0513 -2.99598 2412.57) (31.6706 -72.6866 631.179) (-51.5374 -57.4016 -342.685)
700           (-2493.12 -145.076 9600.08) (-2493.12 -145.076 9600.08) (325.598 -80.442 10654.1) (-15.7176 1235.18 10045.3) (-685.581 -269.382 9276.3) (-28.8123 -94.3352 7574.26) (-397.088 133.068 6958.42) (-118.921 205 4976.73) (-81.6505 -4.26059 2870.93) (38.6379 -86.1542 1063.83) (-56.9024 -62.6383 -4.10265)
750           (-2513.6 -146.547 9223.01) (-2513.6 -146.547 9223.01) (327.199 -77.7477 10298.7) (-16.7488 1270.21 9734.18) (-716.32 -282.289 9008.04) (-39.8082 -99.7241 7368.93) (-447.592 142.146 6918.95) (-145.336 251.106 5203.51) (-109.261 -4.642 3275.45) (47.4026 -102.02 1532.03) (-63.4966 -69.1644 394.583)
800           (-2532.61 -147.913 8872) (-2532.61 -147.913 8872) (328.678 -75.2452 9966.2) (-17.7185 1302.83 9439.8) (-744.962 -294.387 8748.12) (-49.9586 -104.942 7158.92) (-494.13 151.073 6841.37) (-168.707 298.239 5353.21) (-138.773 -4.07601 3614.66) (57.9814 -120.056 2010.04) (-71.4238 -77.1232 845.236)
850           (-2550.36 -149.19 8543.34) (-2550.36 -149.19 8543.34) (330.055 -72.9057 9653.8) (-18.633 1333.37 9161.29) (-771.801 -305.768 8498.64) (-59.4261 -109.936 6951.16) (-537.519 159.675 6745.28) (-189.982 344.563 5450.84) (-168.102 -2.97943 3890.15) (70.0314 -139.767 2474.04) (-80.6228 -86.4789 1332.26)
900           (-2567.01 -150.388 8234.83) (-2567.01 -150.388 8234.83) (331.344 -70.7118 9360.14) (-19.495 1362.05 8898.71) (-796.998 -316.473 8261.91) (-68.2829 -114.678 6751.24) (-578.125 167.852 6643.78) (-209.732 388.869 5517.1) (-195.991 -1.75214 4112.04) (82.8926 -160.442 2907.66) (-90.8271 -96.9661 1835.57)
950           (-2582.62 -151.512 7945.5) (-2582.62 -151.512 7945.5) (332.555 -68.6553 9084.85) (-20.3048 1388.93 8652.65) (-820.618 -326.514 8040.04) (-76.5477 -119.145 6563.31) (-616.035 175.549 6545.19) (-228.124 430.478 5566.43) (-221.956 -0.562405 4293.56) (95.819 -181.263 3303.05) (-101.591 -108.12 2334.81)
1000          (-2597.24 -152.563 7675.19) (-2597.24 -152.563 7675.19) (333.69 -66.7343 8828.14) (-21.0608 1414.05 8423.92) (-842.661 -335.878 7834.73) (-84.2138 -123.315 6390.17) (-651.21 182.723 6454.52) (-245.153 469.012 5607.86) (-245.857 0.557412 4446.85) (108.207 -201.469 3658.67) (-112.391 -119.386 2812.87)
1050          (-2610.83 -153.541 7424.22) (-2610.83 -153.541 7424.22) (334.749 -64.9506 8590.49) (-21.7611 1437.36 8213.26) (-863.093 -344.546 7647.14) (-91.2679 -127.172 6233.47) (-683.58 189.347 6374.47) (-260.779 504.261 5646.47) (-267.639 1.59942 4580.85) (119.68 -220.469 3976.31) (-122.75 -130.25 3257.62)
1100          (-2623.39 -154.444 7193.02) (-2623.39 -154.444 7193.02) (335.733 -63.3073 8372.38) (-22.4039 1458.83 8021.16) (-881.877 -352.499 7477.81) (-97.6996 -130.703 6093.85) (-713.096 195.401 6306.08) (-274.975 536.133 5684.69) (-287.278 2.54996 4701.06) (130.055 -237.889 4258.83) (-132.325 -140.336 3662.02)
1150          (-2634.9 -155.27 6981.91) (-2634.9 -155.27 6981.91) (336.638 -61.8064 8174.04) (-22.9884 1478.42 7847.76) (-898.991 -359.729 7326.71) (-103.508 -133.905 5971.17) (-739.751 200.877 6249.22) (-287.746 564.637 5723.22) (-304.795 3.39663 4810.36) (139.278 -253.54 4509.14) (-140.931 -149.429 4023.21)
1200          (-2645.34 -156.02 6790.94) (-2645.34 -156.02 6790.94) (337.464 -60.4485 7995.38) (-23.5146 1496.13 7692.76) (-914.435 -366.239 7193.28) (-108.702 -136.778 5864.61) (-763.592 205.784 6202.99) (-299.123 589.875 5761.78) (-320.262 4.13513 4910) (147.374 -267.381 4729.88) (-148.514 -157.456 4341.37)
1250          (-2654.74 -156.685 6619.92) (-2654.74 -156.685 6619.92) (338.223 -59.223 7836) (-23.9708 1512.05 7555.55) (-928.275 -372.057 7076.52) (-113.311 -139.336 5772.62) (-784.784 210.148 6165.78) (-309.198 612.09 5799.57) (-333.848 4.76684 5000.36) (154.426 -279.522 4923.66) (-155.145 -164.48 4618.82)
1300          (-2663.1 -157.285 6468.01) (-2663.1 -157.285 6468.01) (338.888 -58.1433 7695.04) (-24.3873 1526.11 7435) (-940.499 -377.187 6975.15) (-117.357 -141.587 5694.26) (-803.35 213.979 6136.51) (-317.994 631.373 5835.83) (-345.6 5.30695 5081.73) (160.496 -289.982 5092.53) (-160.813 -170.486 4858.59)
1350          (-2670.48 -157.815 6334.12) (-2670.48 -157.815 6334.12) (339.48 -57.1923 7571.31) (-24.7526 1538.5 7329.93) (-951.246 -381.688 6887.79) (-120.885 -143.557 5627.84) (-819.543 217.324 6113.67) (-325.641 648.052 5869.89) (-355.739 5.7621 5154.27) (165.701 -298.969 5238.93) (-165.66 -175.622 5064.51)
1400          (-2676.96 -158.28 6217.04) (-2676.96 -158.28 6217.04) (340.001 -56.3608 7463.49) (-25.0707 1549.33 7238.94) (-960.625 -385.609 6812.91) (-123.942 -145.268 5571.72) (-833.577 220.228 6095.92) (-332.248 662.398 5901.26) (-364.442 6.14459 5218.35) (170.143 -306.648 5365.18) (-169.787 -179.992 5240.53)
1450          (-2682.59 -158.685 6115.36) (-2682.59 -158.685 6115.36) (340.456 -55.6387 7370.15) (-25.346 1558.73 7160.59) (-968.754 -389.002 6749.01) (-126.575 -146.746 5524.45) (-845.671 222.732 6082.13) (-337.927 674.683 5929.65) (-371.88 6.4653 5274.47) (173.92 -313.184 5473.55) (-173.288 -183.698 5390.39)
1500          (-2687.47 -159.035 6027.58) (-2687.47 -159.035 6027.58) (340.852 -55.0154 7289.78) (-25.5829 1566.84 7093.45) (-975.761 -391.923 6694.67) (-128.833 -148.016 5484.69) (-856.041 224.882 6071.39) (-342.786 685.161 5954.98) (-378.213 6.7339 5323.24) (177.124 -318.73 5566.2) (-176.252 -186.833 5517.61)
1550          (-2691.66 -159.336 5952.19) (-2691.66 -159.336 5952.19) (341.193 -54.4801 7220.91) (-25.7857 1573.81 7036.14) (-981.771 -394.425 6648.59) (-130.76 -149.103 5451.31) (-864.898 226.719 6062.99) (-346.929 694.07 5977.31) (-383.591 6.95872 5365.35) (179.834 -323.425 5645.11) (-178.755 -189.48 5625.35)
1600          (-2695.25 -159.585 5887.74) (-2695.25 -159.585 5887.74) (341.477 -54.023 7162.12) (-25.9789 1579.75 6987.41) (-986.898 -396.543 6609.61) (-132.406 -150.022 5423.28) (-872.432 228.302 6056.38) (-350.465 701.633 5996.78) (-388.138 7.16532 5401.52) (182.131 -327.386 5712.15) (-180.85 -191.7 5716.39)
1650          (-2698.31 -159.806 5832.81) (-2698.31 -159.806 5832.81) (341.727 -53.6337 7112.12) (-26.1236 1584.82 6946.05) (-991.265 -398.362 6576.69) (-133.797 -150.811 5399.78) (-878.825 229.627 6051.15) (-353.444 708.018 6013.65) (-391.986 7.31979 5432.43) (184.06 -330.727 5768.94) (-182.628 -193.578 5793.23)
1700          (-2700.92 -159.994 5786.14) (-2700.92 -159.994 5786.14) (341.942 -53.3023 7069.7) (-26.2457 1589.13 6911.05) (-994.975 -399.904 6548.94) (-134.974 -151.478 5380.1) (-884.243 230.751 6047.01) (-355.966 713.416 6028.18) (-395.237 7.4492 5458.74) (185.685 -333.546 5816.94) (-184.128 -195.162 5857.97)
1750          (-2703.13 -160.154 5746.6) (-2703.13 -160.154 5746.6) (342.124 -53.0215 7033.79) (-26.349 1592.78 6881.49) (-998.116 -401.21 6525.58) (-135.969 -152.043 5363.61) (-888.82 231.701 6043.7) (-358.095 717.967 6040.61) (-397.975 7.55744 5481.08) (187.052 -335.918 5857.45) (-185.389 -196.492 5912.45)
1800          (-2705 -160.288 5713.17) (-2705 -160.288 5713.17) (342.278 -52.7841 7003.47) (-26.4363 1595.86 6856.57) (-1000.77 -402.313 6505.94) (-136.807 -152.52 5349.8) (-892.681 232.502 6041.03) (-359.889 721.799 6051.21) (-400.281 7.64799 5499.99) (188.201 -337.912 5891.59) (-186.448 -197.61 5958.27)
1850          (-2706.58 -160.402 5684.95) (-2706.58 -160.402 5684.95) (342.409 -52.5838 6977.89) (-26.5098 1598.47 6835.58) (-1003.01 -403.243 6489.44) (-137.514 -152.921 5338.24) (-895.933 233.178 6038.88) (-361.399 725.023 6060.22) (-402.219 7.72375 5515.98) (189.167 -339.587 5920.32) (-187.337 -198.549 5996.76)
1900          (-2707.91 -160.498 5661.18) (-2707.91 -160.498 5661.18) (342.519 -52.415 6956.36) (-26.5717 1600.66 6817.92) (-1004.9 -404.026 6475.58) (-138.108 -153.26 5328.55) (-898.669 233.746 6037.13) (-362.67 727.732 6067.85) (-403.847 7.78715 5529.46) (189.977 -340.992 5944.48) (-188.083 -199.336 6029.07)
1950          (-2709.05 -160.585 5641.14) (-2709.05 -160.585 5641.14) (342.627 -52.2701 6938.24) (-26.5997 1602.55 6803.08) (-1006.51 -404.714 6463.94) (-138.607 -153.555 5320.39) (-901.01 234.213 6035.69) (-363.738 730.035 6074.33) (-405.248 7.82171 5540.79) (190.66 -342.202 5964.81) (-188.745 -200.027 6056.23)
2000          (-2709.98 -160.647 5624.35) (-2709.98 -160.647 5624.35) (342.694 -52.1528 6923.02) (-26.6621 1604.07 6790.62) (-1007.82 -405.245 6454.2) (-139.028 -153.786 5313.62) (-902.914 234.624 6034.51) (-364.637 731.927 6079.75) (-406.373 7.88047 5550.35) (191.229 -343.172 5981.83) (-189.246 -200.559 6078.94)
2050          (-2710.77 -160.712 5610.21) (-2710.77 -160.712 5610.21) (342.76 -52.0536 6910.25) (-26.6908 1605.37 6780.16) (-1008.94 -405.717 6446.01) (-139.379 -153.99 5307.94) (-904.528 234.95 6033.55) (-365.373 733.515 6084.34) (-407.33 7.90761 5558.37) (191.7 -343.994 5996.12) (-189.683 -201.021 6098.02)
2100          (-2711.44 -160.756 5598.36) (-2711.44 -160.756 5598.36) (342.815 -51.9678 6899.53) (-26.7277 1606.47 6771.4) (-1009.89 -406.104 6439.17) (-139.677 -154.157 5303.18) (-905.902 235.242 6032.76) (-366.016 734.876 6088.2) (-408.145 7.94444 5565.1) (192.106 -344.698 6008.1) (-190.053 -201.413 6113.99)
2150          (-2711.99 -160.795 5588.43) (-2711.99 -160.795 5588.43) (342.861 -51.8972 6890.54) (-26.754 1607.39 6764.06) (-1010.67 -406.429 6433.44) (-139.925 -154.296 5299.21) (-907.035 235.478 6032.1) (-366.542 736 6091.43) (-408.818 7.97182 5570.74) (192.44 -345.276 6018.13) (-190.361 -201.735 6127.35)
2200          (-2712.46 -160.826 5580.11) (-2712.46 -160.826 5580.11) (342.898 -51.8393 6883.02) (-26.777 1608.14 6757.91) (-1011.32 -406.697 6428.64) (-140.127 -154.415 5295.9) (-907.974 235.675 6031.56) (-366.984 736.915 6094.13) (-409.369 7.99341 5575.48) (192.718 -345.754 6026.53) (-190.611 -202.004 6138.52)
2250          (-2712.85 -160.854 5573.15) (-2712.85 -160.854 5573.15) (342.93 -51.7895 6876.73) (-26.7956 1608.78 6752.77) (-1011.88 -406.926 6424.63) (-140.301 -154.513 5293.12) (-908.774 235.842 6031.1) (-367.355 737.706 6096.4) (-409.843 8.01235 5579.44) (192.953 -346.163 6033.55) (-190.826 -202.231 6147.88)
2300          (-2713.18 -160.877 5567.31) (-2713.18 -160.877 5567.31) (342.957 -51.7478 6871.45) (-26.8112 1609.32 6748.46) (-1012.34 -407.117 6421.26) (-140.447 -154.595 5290.79) (-909.442 235.981 6030.72) (-367.664 738.367 6098.31) (-410.239 8.02879 5582.76) (193.15 -346.503 6039.44) (-191.006 -202.421 6155.72)
2350          (-2713.46 -160.899 5562.45) (-2713.46 -160.899 5562.45) (342.982 -51.7123 6867.06) (-26.8215 1609.78 6744.87) (-1012.73 -407.281 6418.45) (-140.572 -154.666 5288.82) (-910.009 236.095 6030.39) (-367.924 738.925 6099.9) (-410.576 8.03939 5585.51) (193.316 -346.792 6044.36) (-191.16 -202.582 6162.28)
2400          (-2713.67 -160.913 5558.46) (-2713.67 -160.913 5558.46) (342.997 -51.6852 6863.44) (-26.8338 1610.14 6741.91) (-1013.04 -407.406 6416.14) (-140.667 -154.719 5287.23) (-910.452 236.189 6030.12) (-368.133 739.366 6101.17) (-410.838 8.05291 5587.79) (193.448 -347.017 6048.39) (-191.283 -202.708 6167.67)
2450          (-2713.86 -160.928 5555.08) (-2713.86 -160.928 5555.08) (343.012 -51.6628 6860.38) (-26.8448 1610.45 6739.41) (-1013.31 -407.518 6414.21) (-140.751 -154.765 5285.91) (-910.846 236.274 6029.92) (-368.313 739.759 6102.29) (-411.074 8.0611 5589.69) (193.562 -347.222 6051.77) (-191.39 -202.823 6172.18)
2500          (-2714.01 -160.938 5552.29) (-2714.01 -160.938 5552.29) (343.027 -51.6395 6857.86) (-26.8496 1610.72 6737.34) (-1013.53 -407.611 6412.57) (-140.823 -154.808 5284.75) (-911.168 236.338 6029.69) (-368.465 740.07 6103.18) (-411.262 8.06939 5591.3) (193.658 -347.382 6054.64) (-191.475 -202.911 6175.99)
2550          (-2714.15 -160.948 5549.96) (-2714.15 -160.948 5549.96) (343.035 -51.6266 6855.74) (-26.8584 1610.92 6735.62) (-1013.71 -407.684 6411.25) (-140.878 -154.838 5283.86) (-911.425 236.394 6029.58) (-368.584 740.33 6103.95) (-411.416 8.07495 5592.61) (193.733 -347.516 6056.95) (-191.546 -202.986 6179.08)
2600          (-2714.26 -160.955 5548.02) (-2714.26 -160.955 5548.02) (343.048 -51.609 6854) (-26.8605 1611.11 6734.19) (-1013.87 -407.752 6410.11) (-140.93 -154.869 5283.03) (-911.659 236.439 6029.41) (-368.693 740.555 6104.57) (-411.553 8.08029 5593.72) (193.802 -347.633 6058.95) (-191.607 -203.052 6181.74)
2650          (-2714.34 -160.964 5546.41) (-2714.34 -160.964 5546.41) (343.052 -51.6018 6852.54) (-26.8671 1611.24 6733.01) (-1013.99 -407.801 6409.21) (-140.966 -154.889 5282.44) (-911.83 236.477 6029.35) (-368.771 740.728 6105.11) (-411.655 8.08324 5594.62) (193.852 -347.722 6060.53) (-191.656 -203.102 6183.85)
2700          (-2714.42 -160.967 5545.01) (-2714.42 -160.967 5545.01) (343.061 -51.5878 6851.28) (-26.8687 1611.39 6731.96) (-1014.11 -407.85 6408.37) (-141.005 -154.911 5281.84) (-912.003 236.511 6029.21) (-368.853 740.894 6105.55) (-411.757 8.08853 5595.43) (193.904 -347.809 6061.98) (-191.7 -203.15 6185.79)
2750          (-2714.49 -160.973 5543.83) (-2714.49 -160.973 5543.83) (343.064 -51.5827 6850.2) (-26.8748 1611.48 6731.09) (-1014.2 -407.885 6407.71) (-141.031 -154.925 5281.41) (-912.129 236.541 6029.18) (-368.911 741.025 6105.95) (-411.832 8.09192 5596.09) (193.941 -347.875 6063.14) (-191.737 -203.188 6187.33)
2800          (-2714.54 -160.976 5542.98) (-2714.54 -160.976 5542.98) (343.068 -51.5766 6849.43) (-26.8769 1611.56 6730.46) (-1014.26 -407.914 6407.22) (-141.052 -154.937 5281.06) (-912.227 236.561 6029.12) (-368.956 741.121 6106.23) (-411.891 8.09385 5596.57) (193.97 -347.925 6064) (-191.763 -203.215 6188.48)
2850          (-2714.59 -160.979 5542.12) (-2714.59 -160.979 5542.12) (343.072 -51.5704 6848.66) (-26.8793 1611.64 6729.83) (-1014.33 -407.942 6406.72) (-141.074 -154.949 5280.72) (-912.326 236.582 6029.06) (-369.003 741.22 6106.5) (-411.95 8.09656 5597.06) (193.999 -347.976 6064.87) (-191.79 -203.244 6189.64)
2900          (-2714.62 -160.982 5541.49) (-2714.62 -160.982 5541.49) (343.075 -51.5658 6848.09) (-26.8806 1611.7 6729.36) (-1014.38 -407.963 6406.36) (-141.09 -154.958 5280.46) (-912.4 236.597 6029.01) (-369.037 741.293 6106.71) (-411.993 8.09798 5597.41) (194.021 -348.014 6065.5) (-191.811 -203.266 6190.49)
2950          (-2714.65 -160.983 5540.99) (-2714.65 -160.983 5540.99) (343.08 -51.5592 6847.64) (-26.8788 1611.76 6728.99) (-1014.43 -407.982 6406.05) (-141.105 -154.967 5280.22) (-912.465 236.607 6028.93) (-369.068 741.35 6106.85) (-412.031 8.09919 5597.71) (194.04 -348.045 6066.04) (-191.825 -203.282 6191.21)
3000          (-2714.67 -160.985 5540.57) (-2714.67 -160.985 5540.57) (343.082 -51.5562 6847.26) (-26.8798 1611.8 6728.68) (-1014.46 -407.995 6405.81) (-141.116 -154.973 5280.05) (-912.513 236.617 6028.9) (-369.09 741.398 6106.99) (-412.059 8.10029 5597.94) (194.054 -348.07 6066.47) (-191.838 -203.296 6191.78)
3050          (-2714.7 -160.987 5540.16) (-2714.7 -160.987 5540.16) (343.083 -51.5534 6846.89) (-26.881 1611.83 6728.37) (-1014.49 -408.009 6405.57) (-141.126 -154.979 5279.88) (-912.56 236.627 6028.87) (-369.112 741.445 6107.12) (-412.087 8.10142 5598.17) (194.068 -348.094 6066.88) (-191.851 -203.309 6192.34)
3100          (-2714.71 -160.989 5539.85) (-2714.71 -160.989 5539.85) (343.082 -51.5536 6846.59) (-26.8848 1611.85 6728.13) (-1014.52 -408.017 6405.39) (-141.132 -154.982 5279.78) (-912.592 236.636 6028.88) (-369.126 741.482 6107.23) (-412.107 8.10251 5598.35) (194.078 -348.112 6067.19) (-191.863 -203.32 6192.74)
3150          (-2714.73 -160.989 5539.64) (-2714.73 -160.989 5539.64) (343.083 -51.5521 6846.41) (-26.8853 1611.87 6727.98) (-1014.53 -408.023 6405.26) (-141.138 -154.985 5279.69) (-912.616 236.641 6028.86) (-369.137 741.506 6107.29) (-412.122 8.10304 5598.46) (194.085 -348.124 6067.4) (-191.869 -203.328 6193.03)
3200          (-2714.74 -160.99 5539.44) (-2714.74 -160.99 5539.44) (343.084 -51.5505 6846.23) (-26.8857 1611.89 6727.82) (-1014.55 -408.03 6405.14) (-141.143 -154.988 5279.6) (-912.64 236.645 6028.84) (-369.149 741.529 6107.35) (-412.136 8.1035 5598.57) (194.092 -348.137 6067.61) (-191.876 -203.335 6193.32)
3250          (-2714.75 -160.991 5539.24) (-2714.75 -160.991 5539.24) (343.085 -51.549 6846.04) (-26.8861 1611.91 6727.67) (-1014.56 -408.036 6405.02) (-141.148 -154.991 5279.51) (-912.664 236.65 6028.81) (-369.16 741.553 6107.41) (-412.15 8.10398 5598.68) (194.099 -348.149 6067.82) (-191.883 -203.342 6193.61)
3300          (-2714.75 -160.991 5539.15) (-2714.75 -160.991 5539.15) (343.088 -51.5461 6845.97) (-26.8832 1611.93 6727.61) (-1014.57 -408.042 6404.96) (-141.152 -154.993 5279.45) (-912.679 236.651 6028.78) (-369.168 741.562 6107.42) (-412.158 8.10397 5598.74) (194.103 -348.155 6067.92) (-191.884 -203.344 6193.76)
3350          (-2714.75 -160.991 5539.15) (-2714.75 -160.991 5539.15) (343.088 -51.5461 6845.97) (-26.8832 1611.93 6727.61) (-1014.57 -408.042 6404.96) (-141.152 -154.993 5279.45) (-912.679 236.651 6028.78) (-369.168 741.562 6107.42) (-412.158 8.10397 5598.74) (194.103 -348.155 6067.92) (-191.884 -203.344 6193.76)
3400          (-2714.76 -160.991 5539.05) (-2714.76 -160.991 5539.05) (343.086 -51.5475 6845.86) (-26.8866 1611.93 6727.52) (-1014.58 -408.042 6404.89) (-141.154 -154.993 5279.42) (-912.688 236.654 6028.78) (-369.172 741.576 6107.45) (-412.165 8.10416 5598.78) (194.107 -348.162 6068.02) (-191.89 -203.349 6193.91)
3450          (-2714.76 -160.991 5539.05) (-2714.76 -160.991 5539.05) (343.086 -51.5475 6845.86) (-26.8866 1611.93 6727.52) (-1014.58 -408.042 6404.89) (-141.154 -154.993 5279.42) (-912.688 236.654 6028.78) (-369.172 741.576 6107.45) (-412.165 8.10416 5598.78) (194.107 -348.162 6068.02) (-191.89 -203.349 6193.91)
3500          (-2714.76 -160.991 5539.05) (-2714.76 -160.991 5539.05) (343.086 -51.5475 6845.86) (-26.8866 1611.93 6727.52) (-1014.58 -408.042 6404.89) (-141.154 -154.993 5279.42) (-912.688 236.654 6028.78) (-369.172 741.576 6107.45) (-412.165 8.10416 5598.78) (194.107 -348.162 6068.02) (-191.89 -203.349 6193.91)
3550          (-2714.76 -160.991 5539.05) (-2714.76 -160.991 5539.05) (343.086 -51.5475 6845.86) (-26.8866 1611.93 6727.52) (-1014.58 -408.042 6404.89) (-141.154 -154.993 5279.42) (-912.688 236.654 6028.78) (-369.172 741.576 6107.45) (-412.165 8.10416 5598.78) (194.107 -348.162 6068.02) (-191.89 -203.349 6193.91)
3600          (-2714.76 -160.991 5539.05) (-2714.76 -160.991 5539.05) (343.086 -51.5475 6845.86) (-26.8866 1611.93 6727.52) (-1014.58 -408.042 6404.89) (-141.154 -154.993 5279.42) (-912.688 236.654 6028.78) (-369.172 741.576 6107.45) (-412.165 8.10416 5598.78) (194.107 -348.162 6068.02) (-191.89 -203.349 6193.91)
3650          (-2714.76 -160.991 5539.05) (-2714.76 -160.991 5539.05) (343.086 -51.5475 6845.86) (-26.8866 1611.93 6727.52) (-1014.58 -408.042 6404.89) (-141.154 -154.993 5279.42) (-912.688 236.654 6028.78) (-369.172 741.576 6107.45) (-412.165 8.10416 5598.78) (194.107 -348.162 6068.02) (-191.89 -203.349 6193.91)
3700          (-2714.76 -160.991 5539.05) (-2714.76 -160.991 5539.05) (343.086 -51.5475 6845.86) (-26.8866 1611.93 6727.52) (-1014.58 -408.042 6404.89) (-141.154 -154.993 5279.42) (-912.688 236.654 6028.78) (-369.172 741.576 6107.45) (-412.165 8.10416 5598.78) (194.107 -348.162 6068.02) (-191.89 -203.349 6193.91)
3750          (-2714.76 -160.991 5539.05) (-2714.76 -160.991 5539.05) (343.086 -51.5475 6845.86) (-26.8866 1611.93 6727.52) (-1014.58 -408.042 6404.89) (-141.154 -154.993 5279.42) (-912.688 236.654 6028.78) (-369.172 741.576 6107.45) (-412.165 8.10416 5598.78) (194.107 -348.162 6068.02) (-191.89 -203.349 6193.91)
3800          (-2714.76 -160.991 5539.05) (-2714.76 -160.991 5539.05) (343.086 -51.5475 6845.86) (-26.8866 1611.93 6727.52) (-1014.58 -408.042 6404.89) (-141.154 -154.993 5279.42) (-912.688 236.654 6028.78) (-369.172 741.576 6107.45) (-412.165 8.10416 5598.78) (194.107 -348.162 6068.02) (-191.89 -203.349 6193.91)
3850          (-2714.76 -160.991 5539.05) (-2714.76 -160.991 5539.05) (343.086 -51.5475 6845.86) (-26.8866 1611.93 6727.52) (-1014.58 -408.042 6404.89) (-141.154 -154.993 5279.42) (-912.688 236.654 6028.78) (-369.172 741.576 6107.45) (-412.165 8.10416 5598.78) (194.107 -348.162 6068.02) (-191.89 -203.349 6193.91)
3900          (-2714.76 -160.991 5539.05) (-2714.76 -160.991 5539.05) (343.086 -51.5475 6845.86) (-26.8866 1611.93 6727.52) (-1014.58 -408.042 6404.89) (-141.154 -154.993 5279.42) (-912.688 236.654 6028.78) (-369.172 741.576 6107.45) (-412.165 8.10416 5598.78) (194.107 -348.162 6068.02) (-191.89 -203.349 6193.91)
3950          (-2714.76 -160.991 5539.05) (-2714.76 -160.991 5539.05) (343.086 -51.5475 6845.86) (-26.8866 1611.93 6727.52) (-1014.58 -408.042 6404.89) (-141.154 -154.993 5279.42) (-912.688 236.654 6028.78) (-369.172 741.576 6107.45) (-412.165 8.10416 5598.78) (194.107 -348.162 6068.02) (-191.89 -203.349 6193.91)
4000          (-2714.76 -160.991 5539.05) (-2714.76 -160.991 5539.05) (343.086 -51.5475 6845.86) (-26.8866 1611.93 6727.52) (-1014.58 -408.042 6404.89) (-141.154 -154.993 5279.42) (-912.688 236.654 6028.78) (-369.172 741.576 6107.45) (-412.165 8.10416 5598.78) (194.107 -348.162 6068.02) (-191.89 -203.349 6193.91)
4050          (-2714.76 -160.991 5539.05) (-2714.76 -160.991 5539.05) (343.086 -51.5475 6845.86) (-26.8866 1611.93 6727.52) (-1014.58 -408.042 6404.89) (-141.154 -154.993 5279.42) (-912.688 236.654 6028.78) (-369.172 741.576 6107.45) (-412.165 8.10416 5598.78) (194.107 -348.162 6068.02) (-191.89 -203.349 6193.91)
4100          (-2714.76 -160.991 5539.05) (-2714.76 -160.991 5539.05) (343.086 -51.5475 6845.86) (-26.8866 1611.93 6727.52) (-1014.58 -408.042 6404.89) (-141.154 -154.993 5279.42) (-912.688 236.654 6028.78) (-369.172 741.576 6107.45) (-412.165 8.10416 5598.78) (194.107 -348.162 6068.02) (-191.89 -203.349 6193.91)
4150          (-2714.76 -160.991 5539.05) (-2714.76 -160.991 5539.05) (343.086 -51.5475 6845.86) (-26.8866 1611.93 6727.52) (-1014.58 -408.042 6404.89) (-141.154 -154.993 5279.42) (-912.688 236.654 6028.78) (-369.172 741.576 6107.45) (-412.165 8.10416 5598.78) (194.107 -348.162 6068.02) (-191.89 -203.349 6193.91)
4200          (-2714.76 -160.991 5539.05) (-2714.76 -160.991 5539.05) (343.086 -51.5475 6845.86) (-26.8866 1611.93 6727.52) (-1014.58 -408.042 6404.89) (-141.154 -154.993 5279.42) (-912.688 236.654 6028.78) (-369.172 741.576 6107.45) (-412.165 8.10416 5598.78) (194.107 -348.162 6068.02) (-191.89 -203.349 6193.91)
4250          (-2714.76 -160.991 5539.05) (-2714.76 -160.991 5539.05) (343.086 -51.5475 6845.86) (-26.8866 1611.93 6727.52) (-1014.58 -408.042 6404.89) (-141.154 -154.993 5279.42) (-912.688 236.654 6028.78) (-369.172 741.576 6107.45) (-412.165 8.10416 5598.78) (194.107 -348.162 6068.02) (-191.89 -203.349 6193.91)
4300          (-2714.76 -160.991 5539.05) (-2714.76 -160.991 5539.05) (343.086 -51.5475 6845.86) (-26.8866 1611.93 6727.52) (-1014.58 -408.042 6404.89) (-141.154 -154.993 5279.42) (-912.688 236.654 6028.78) (-369.172 741.576 6107.45) (-412.165 8.10416 5598.78) (194.107 -348.162 6068.02) (-191.89 -203.349 6193.91)
4350          (-2714.76 -160.991 5539.05) (-2714.76 -160.991 5539.05) (343.086 -51.5475 6845.86) (-26.8866 1611.93 6727.52) (-1014.58 -408.042 6404.89) (-141.154 -154.993 5279.42) (-912.688 236.654 6028.78) (-369.172 741.576 6107.45) (-412.165 8.10416 5598.78) (194.107 -348.162 6068.02) (-191.89 -203.349 6193.91)
4400          (-2714.76 -160.991 5539.05) (-2714.76 -160.991 5539.05) (343.086 -51.5475 6845.86) (-26.8866 1611.93 6727.52) (-1014.58 -408.042 6404.89) (-141.154 -154.993 5279.42) (-912.688 236.654 6028.78) (-369.172 741.576 6107.45) (-412.165 8.10416 5598.78) (194.107 -348.162 6068.02) (-191.89 -203.349 6193.91)
4450          (-2714.76 -160.991 5539.05) (-2714.76 -160.991 5539.05) (343.086 -51.5475 6845.86) (-26.8866 1611.93 6727.52) (-1014.58 -408.042 6404.89) (-141.154 -154.993 5279.42) (-912.688 236.654 6028.78) (-369.172 741.576 6107.45) (-412.165 8.10416 5598.78) (194.107 -348.162 6068.02) (-191.89 -203.349 6193.91)
4500          (-2714.76 -160.991 5539.05) (-2714.76 -160.991 5539.05) (343.086 -51.5475 6845.86) (-26.8866 1611.93 6727.52) (-1014.58 -408.042 6404.89) (-141.154 -154.993 5279.42) (-912.688 236.654 6028.78) (-369.172 741.576 6107.45) (-412.165 8.10416 5598.78) (194.107 -348.162 6068.02) (-191.89 -203.349 6193.91)
4550          (-2714.76 -160.991 5539.05) (-2714.76 -160.991 5539.05) (343.086 -51.5475 6845.86) (-26.8866 1611.93 6727.52) (-1014.58 -408.042 6404.89) (-141.154 -154.993 5279.42) (-912.688 236.654 6028.78) (-369.172 741.576 6107.45) (-412.165 8.10416 5598.78) (194.107 -348.162 6068.02) (-191.89 -203.349 6193.91)
4600          (-2714.76 -160.991 5539.05) (-2714.76 -160.991 5539.05) (343.086 -51.5475 6845.86) (-26.8866 1611.93 6727.52) (-1014.58 -408.042 6404.89) (-141.154 -154.993 5279.42) (-912.688 236.654 6028.78) (-369.172 741.576 6107.45) (-412.165 8.10416 5598.78) (194.107 -348.162 6068.02) (-191.89 -203.349 6193.91)
4650          (-2714.76 -160.991 5539.05) (-2714.76 -160.991 5539.05) (343.086 -51.5475 6845.86) (-26.8866 1611.93 6727.52) (-1014.58 -408.042 6404.89) (-141.154 -154.993 5279.42) (-912.688 236.654 6028.78) (-369.172 741.576 6107.45) (-412.165 8.10416 5598.78) (194.107 -348.162 6068.02) (-191.89 -203.349 6193.91)
4700          (-2714.76 -160.991 5539.05) (-2714.76 -160.991 5539.05) (343.086 -51.5475 6845.86) (-26.8866 1611.93 6727.52) (-1014.58 -408.042 6404.89) (-141.154 -154.993 5279.42) (-912.688 236.654 6028.78) (-369.172 741.576 6107.45) (-412.165 8.10416 5598.78) (194.107 -348.162 6068.02) (-191.89 -203.349 6193.91)