# Probe 0 (0.0015 0.0015 0)
# Probe 1 (0.0015 0.0015 0.002)
# Probe 2 (0.0015 0.0015 0.004)
# Probe 3 (0.0015 0.0015 0.006)
# Probe 4 (0.0015 0.0015 0.008)
# Probe 5 (0.0015 0.0015 0.01)
# Probe 6 (0.0015 0.0015 0.012)
# Probe 7 (0.0015 0.0015 0.014)
# Probe 8 (0.0015 0.0015 0.016)
# Probe 9 (0.0015 0.0015 0.018)
# Probe 10 (0.0015 0.0015 0.02)
# Time        0             1             2             3             4             5             6             7             8             9             10           
50            (2.49799e-09 -1.68993e-09 2.40228e-10) (2.49799e-09 -1.68993e-09 2.40228e-10) (5.99268e-09 -7.28629e-09 5.59973e-10) (9.8056e-09 -1.22658e-08 1.91399e-09) (1.45855e-08 -1.72958e-08 1.75709e-09) (1.76013e-08 -2.2149e-08 2.48483e-09) (2.11762e-08 -2.61196e-08 1.98364e-09) (2.31626e-08 -2.77378e-08 1.7276e-09) (2.65993e-08 -2.92061e-08 1.87899e-09) (2.79847e-08 -2.88865e-08 1.80271e-09) (2.77982e-08 -2.90701e-08 8.62804e-10)
100           (2.2009e-09 -2.90732e-09 -1.15534e-09) (2.2009e-09 -2.90732e-09 -1.15534e-09) (7.04588e-09 -8.52113e-09 -1.46753e-09) (1.13475e-08 -1.41711e-08 -1.91183e-09) (1.65656e-08 -1.94179e-08 -2.49533e-09) (2.08109e-08 -2.50739e-08 -2.6644e-09) (2.47882e-08 -3.00233e-08 -2.60996e-09) (2.72955e-08 -3.15372e-08 -2.93494e-09) (2.98552e-08 -3.31992e-08 -2.74544e-09) (3.19227e-08 -3.34808e-08 -2.88896e-09) (3.17255e-08 -3.34682e-08 -4.00252e-09)
150           (2.67726e-09 -2.74214e-09 1.9093e-09) (2.67726e-09 -2.74214e-09 1.9093e-09) (6.98037e-09 -8.67197e-09 1.89676e-09) (1.14299e-08 -1.39063e-08 1.25724e-09) (1.62684e-08 -1.95896e-08 5.4153e-10) (2.08948e-08 -2.49448e-08 5.27728e-10) (2.50626e-08 -2.94729e-08 2.22655e-09) (2.68596e-08 -3.17823e-08 3.09326e-09) (2.96755e-08 -3.32962e-08 3.59273e-09) (3.2259e-08 -3.33663e-08 3.31485e-09) (3.26269e-08 -3.35302e-08 2.28635e-09)
200           (2.23808e-09 -2.8411e-09 -5.34067e-10) (2.23808e-09 -2.8411e-09 -5.34067e-10) (7.09936e-09 -8.36692e-09 -3.50706e-10) (1.16025e-08 -1.39593e-08 -1.37955e-09) (1.64293e-08 -1.94891e-08 -2.054e-09) (2.09369e-08 -2.48968e-08 -1.11274e-09) (2.44627e-08 -2.95301e-08 -4.37586e-10) (2.75361e-08 -3.13271e-08 2.18372e-10) (3.08616e-08 -3.21391e-08 -1.02648e-09) (3.25216e-08 -3.40122e-08 -1.87766e-09) (3.29926e-08 -3.34011e-08 -1.26487e-09)
250           (2.47148e-09 -3.04716e-09 5.08756e-10) (2.47148e-09 -3.04716e-09 5.08756e-10) (7.37704e-09 -8.47233e-09 9.73558e-10) (1.1421e-08 -1.4206e-08 3.77752e-10) (1.68112e-08 -1.96479e-08 1.38305e-10) (2.11394e-08 -2.50428e-08 -1.7759e-10) (2.4193e-08 -3.08649e-08 4.06862e-10) (2.75692e-08 -3.22862e-08 1.31172e-09) (3.11872e-08 -3.30547e-08 1.81924e-09) (3.31629e-08 -3.44134e-08 1.20656e-09) (3.21743e-08 -3.42732e-08 2.16853e-09)
300           (2.32815e-09 -2.62164e-09 5.48088e-10) (2.32815e-09 -2.62164e-09 5.48088e-10) (7.22301e-09 -9.0663e-09 -1.2106e-10) (1.15713e-08 -1.42496e-08 -1.5291e-09) (1.60206e-08 -2.02377e-08 -1.8927e-09) (2.0866e-08 -2.57549e-08 -2.29739e-09) (2.45229e-08 -3.04295e-08 -2.72081e-09) (2.7291e-08 -3.25438e-08 -3.94693e-09) (3.04309e-08 -3.34023e-08 -5.39228e-09) (3.25999e-08 -3.41296e-08 -4.89108e-09) (3.21331e-08 -3.42969e-08 -2.94663e-09)
350           (2.31896e-09 -2.83656e-09 3.3371e-10) (2.31896e-09 -2.83656e-09 3.3371e-10) (7.29266e-09 -8.72566e-09 4.97782e-10) (1.2003e-08 -1.34707e-08 5.56433e-10) (1.61521e-08 -1.95727e-08 -2.15675e-10) (2.11164e-08 -2.54617e-08 9.19178e-10) (2.44724e-08 -2.98069e-08 2.17598e-09) (2.73545e-08 -3.15672e-08 2.39496e-09) (3.06891e-08 -3.30198e-08 2.67873e-09) (3.31572e-08 -3.35839e-08 1.28091e-09) (3.28991e-08 -3.35644e-08 -2.42727e-10)
400           (2.29247e-09 -2.32753e-09 6.15234e-10) (2.29247e-09 -2.32753e-09 6.15234e-10) (6.63394e-09 -8.02878e-09 2.96849e-10) (1.16378e-08 -1.44768e-08 1.85416e-10) (1.62507e-08 -1.92229e-08 -8.03833e-11) (2.03528e-08 -2.4658e-08 7.39475e-11) (2.43462e-08 -3.00372e-08 -5.82721e-10) (2.70562e-08 -3.16217e-08 -1.70747e-10) (3.0442e-08 -3.28939e-08 2.76929e-10) (3.15786e-08 -3.39053e-08 1.96096e-10) (3.17587e-08 -3.32099e-08 -7.1712e-10)
450           (2.35341e-09 -2.98459e-09 -2.22125e-10) (2.35341e-09 -2.98459e-09 -2.22125e-10) (7.28572e-09 -8.35449e-09 -1.70124e-09) (1.1448e-08 -1.37835e-08 -1.72154e-09) (1.64128e-08 -1.96589e-08 2.53989e-10) (2.1577e-08 -2.48056e-08 1.46857e-09) (2.4861e-08 -2.96522e-08 9.02098e-10) (2.76109e-08 -3.10427e-08 2.45009e-10) (3.03295e-08 -3.22117e-08 -1.46374e-09) (3.27887e-08 -3.30475e-08 -7.21166e-10) (3.26113e-08 -3.29621e-08 -3.28499e-11)
500           (2.31638e-09 -2.6859e-09 -3.7838e-10) (2.31638e-09 -2.6859e-09 -3.7838e-10) (8.10366e-09 -8.28331e-09 6.74001e-10) (1.18009e-08 -1.35663e-08 2.11498e-09) (1.61845e-08 -1.92813e-08 2.61031e-09) (2.1279e-08 -2.52631e-08 3.07941e-09) (2.47945e-08 -2.90881e-08 2.03623e-09) (2.74494e-08 -3.151e-08 9.52761e-11) (3.09148e-08 -3.16251e-08 -5.11294e-10) (3.16998e-08 -3.35935e-08 -1.33805e-09) (3.20369e-08 -3.29809e-08 -1.55481e-09)
550           (2.04024e-09 -2.88598e-09 -2.42773e-10) (2.04024e-09 -2.88598e-09 -2.42773e-10) (7.23524e-09 -8.83304e-09 3.48287e-10) (1.23512e-08 -1.3584e-08 8.11029e-10) (1.62143e-08 -1.94396e-08 -7.00168e-10) (2.14284e-08 -2.56738e-08 -2.17269e-09) (2.48176e-08 -3.00252e-08 -1.79624e-09) (2.74506e-08 -3.2218e-08 -1.19146e-09) (3.06609e-08 -3.28279e-08 -1.64992e-09) (3.23527e-08 -3.35729e-08 -3.25649e-09) (3.27513e-08 -3.31224e-08 -2.97421e-09)
600           (2.28908e-09 -2.8942e-09 1.64879e-11) (2.28908e-09 -2.8942e-09 1.64879e-11) (7.51328e-09 -8.7403e-09 1.15375e-09) (1.12752e-08 -1.3993e-08 1.62105e-09) (1.67254e-08 -1.98128e-08 2.0631e-09) (2.08507e-08 -2.43416e-08 2.55477e-09) (2.44881e-08 -2.90119e-08 2.94324e-09) (2.74184e-08 -3.07589e-08 3.26839e-09) (3.04321e-08 -3.28306e-08 2.78464e-09) (3.21358e-08 -3.37454e-08 3.15869e-09) (3.22106e-08 -3.34333e-08 4.40034e-09)
650           (2.21983e-09 -2.60424e-09 2.83961e-10) (2.21983e-09 -2.60424e-09 2.83961e-10) (7.80487e-09 -8.00866e-09 -3.42628e-10) (1.17347e-08 -1.32009e-08 8.08892e-12) (1.70424e-08 -1.9284e-08 2.23095e-11) (2.13618e-08 -2.53757e-08 -6.38181e-10) (2.53896e-08 -2.90753e-08 -5.83646e-10) (2.80253e-08 -3.16454e-08 -4.81422e-11) (3.12587e-08 -3.24804e-08 -1.29791e-09) (3.27028e-08 -3.29656e-08 -2.95053e-09) (3.29535e-08 -3.4102e-08 -4.04428e-09)
700           (2.36316e-09 -2.96858e-09 9.28876e-10) (2.36316e-09 -2.96858e-09 9.28876e-10) (7.19693e-09 -8.58486e-09 2.00792e-09) (1.13216e-08 -1.39911e-08 8.58424e-10) (1.60733e-08 -1.98278e-08 -5.22034e-11) (2.15005e-08 -2.54806e-08 -3.0474e-10) (2.45323e-08 -3.04557e-08 -5.48654e-10) (2.77119e-08 -3.22856e-08 -1.01734e-09) (3.05709e-08 -3.3824e-08 -2.32881e-09) (3.25569e-08 -3.44151e-08 -2.88441e-09) (3.28157e-08 -3.43907e-08 -3.619e-09)
750           (2.07603e-09 -3.01689e-09 7.84496e-10) (2.07603e-09 -3.01689e-09 7.84496e-10) (7.41176e-09 -8.43045e-09 1.74532e-09) (1.16551e-08 -1.42374e-08 1.9134e-09) (1.63485e-08 -1.94476e-08 5.26998e-10) (2.07039e-08 -2.51555e-08 7.55553e-10) (2.43642e-08 -3.05989e-08 2.13823e-09) (2.71309e-08 -3.19567e-08 1.80479e-09) (3.0987e-08 -3.35846e-08 1.52171e-09) (3.20457e-08 -3.41126e-08 7.08157e-10) (3.24841e-08 -3.4222e-08 3.5998e-10)
800           (2.65645e-09 -2.92385e-09 -7.18016e-10) (2.65645e-09 -2.92385e-09 -7.18016e-10) (6.94734e-09 -8.42934e-09 -5.15863e-10) (1.20899e-08 -1.44281e-08 6.39082e-10) (1.6976e-08 -2.00289e-08 1.36083e-09) (2.15435e-08 -2.55873e-08 7.60855e-10) (2.50265e-08 -3.01827e-08 -1.88301e-12) (2.81166e-08 -3.20801e-08 -9.08111e-10) (3.04369e-08 -3.33452e-08 4.86115e-10) (3.31493e-08 -3.41634e-08 1.6797e-09) (3.27161e-08 -3.40434e-08 9.49425e-10)
850           (2.3443e-09 -2.56848e-09 -7.82869e-10) (2.3443e-09 -2.56848e-09 -7.82869e-10) (6.75834e-09 -9.12931e-09 -2.99311e-10) (1.21874e-08 -1.35664e-08 -1.13452e-10) (1.68782e-08 -1.95547e-08 3.73634e-10) (2.16228e-08 -2.56319e-08 5.32851e-10) (2.52007e-08 -3.00448e-08 8.32794e-10) (2.77661e-08 -3.26152e-08 9.86911e-10) (3.10114e-08 -3.31529e-08 -4.04335e-10) (3.29362e-08 -3.36047e-08 -1.50901e-09) (3.32768e-08 -3.39056e-08 -9.79073e-10)
900           (2.62544e-09 -2.87015e-09 4.53178e-11) (2.62544e-09 -2.87015e-09 4.53178e-11) (7.20727e-09 -8.87475e-09 -1.59656e-10) (1.20605e-08 -1.40323e-08 2.76979e-10) (1.63882e-08 -1.98764e-08 1.82866e-09) (2.05378e-08 -2.59282e-08 1.02824e-09) (2.53552e-08 -3.07707e-08 4.4708e-10) (2.72279e-08 -3.29204e-08 -5.95027e-11) (3.07192e-08 -3.37784e-08 -3.16105e-10) (3.18487e-08 -3.35435e-08 -5.45791e-10) (3.26456e-08 -3.44447e-08 -2.57099e-12)
950           (2.8566e-09 -2.88393e-09 3.07589e-10) (2.8566e-09 -2.88393e-09 3.07589e-10) (6.94387e-09 -8.44043e-09 2.36069e-10) (1.20726e-08 -1.48372e-08 1.20497e-09) (1.61247e-08 -1.96343e-08 2.77181e-09) (2.08577e-08 -2.52808e-08 2.85327e-09) (2.44782e-08 -3.00901e-08 2.68646e-09) (2.78554e-08 -3.20072e-08 1.43335e-09) (3.07288e-08 -3.25646e-08 1.19182e-09) (3.23543e-08 -3.36986e-08 -5.04993e-10) (3.2262e-08 -3.31521e-08 -7.36955e-10)
1000          (2.43646e-09 -2.87897e-09 1.06909e-09) (2.43646e-09 -2.87897e-09 1.06909e-09) (7.32239e-09 -8.65144e-09 1.93692e-09) (1.17958e-08 -1.39565e-08 2.42198e-09) (1.6742e-08 -1.98373e-08 1.11702e-09) (2.11109e-08 -2.46658e-08 3.64644e-10) (2.53791e-08 -2.9305e-08 -1.43475e-10) (2.85768e-08 -3.18292e-08 -1.56659e-10) (3.13887e-08 -3.25557e-08 -6.34693e-11) (3.25805e-08 -3.36094e-08 8.81501e-11) (3.31998e-08 -3.36961e-08 -4.73524e-10)
1050          (2.18433e-09 -2.48602e-09 1.53182e-10) (2.18433e-09 -2.48602e-09 1.53182e-10) (7.4549e-09 -8.45639e-09 1.9149e-09) (1.19742e-08 -1.37238e-08 3.32313e-09) (1.59272e-08 -1.91718e-08 2.07116e-09) (2.05814e-08 -2.52087e-08 1.45477e-09) (2.43635e-08 -3.00829e-08 2.07372e-09) (2.67769e-08 -3.12498e-08 1.78975e-09) (3.01102e-08 -3.32599e-08 9.482e-10) (3.24982e-08 -3.43938e-08 -8.5107e-10) (3.27983e-08 -3.36441e-08 -1.1354e-09)
1100          (2.76859e-09 -2.5866e-09 1.9752e-10) (2.76859e-09 -2.5866e-09 1.9752e-10) (7.54352e-09 -8.6855e-09 1.65642e-10) (1.13691e-08 -1.46276e-08 7.34465e-11) (1.67607e-08 -2.07101e-08 6.17796e-10) (2.17684e-08 -2.62419e-08 1.55623e-09) (2.5394e-08 -3.07962e-08 -6.33839e-10) (2.80598e-08 -3.29648e-08 -1.2817e-09) (3.12061e-08 -3.41071e-08 -3.18354e-10) (3.29593e-08 -3.48631e-08 2.73782e-11) (3.30202e-08 -3.43532e-08 7.23137e-10)
1150          (1.75212e-09 -3.33391e-09 1.42023e-10) (1.75212e-09 -3.33391e-09 1.42023e-10) (7.04283e-09 -8.60858e-09 4.58034e-10) (1.15117e-08 -1.36179e-08 4.82428e-10) (1.63483e-08 -2.01253e-08 4.95571e-11) (2.15004e-08 -2.50213e-08 9.20429e-10) (2.53119e-08 -3.02879e-08 -1.7168e-10) (2.83281e-08 -3.20695e-08 -3.25849e-10) (3.09952e-08 -3.22138e-08 4.5582e-10) (3.31734e-08 -3.32818e-08 -2.60329e-10) (3.37495e-08 -3.38475e-08 3.86157e-10)
1200          (2.39205e-09 -2.45477e-09 -2.23671e-10) (2.39205e-09 -2.45477e-09 -2.23671e-10) (6.63198e-09 -8.25081e-09 2.2486e-10) (1.0799e-08 -1.36861e-08 8.0172e-10) (1.61138e-08 -1.85145e-08 -3.64098e-10) (2.02531e-08 -2.52272e-08 -1.10464e-09) (2.39449e-08 -2.91249e-08 -1.26545e-09) (2.60634e-08 -3.10023e-08 -1.49015e-09) (2.95208e-08 -3.24684e-08 -1.52421e-09) (3.161e-08 -3.35068e-08 -1.82748e-09) (3.15012e-08 -3.39421e-08 -1.34418e-09)
1250          (1.82317e-09 -3.05897e-09 -2.56497e-10) (1.82317e-09 -3.05897e-09 -2.56497e-10) (7.34774e-09 -8.7907e-09 8.34742e-10) (1.18269e-08 -1.41962e-08 1.3725e-09) (1.55238e-08 -1.95239e-08 1.5097e-09) (2.08357e-08 -2.59612e-08 1.92002e-09) (2.48008e-08 -2.99299e-08 1.83005e-09) (2.72848e-08 -3.20269e-08 1.527e-09) (3.16953e-08 -3.1916e-08 2.06141e-09) (3.20298e-08 -3.42489e-08 1.71274e-09) (3.20876e-08 -3.44467e-08 1.77435e-09)
1300          (2.6895e-09 -3.05949e-09 1.73854e-11) (2.6895e-09 -3.05949e-09 1.73854e-11) (6.99884e-09 -7.9361e-09 1.08505e-10) (1.18427e-08 -1.37836e-08 -6.84349e-10) (1.65319e-08 -1.99298e-08 -5.55275e-10) (2.16699e-08 -2.52714e-08 5.08302e-10) (2.53584e-08 -2.98733e-08 1.02774e-10) (2.80337e-08 -3.18678e-08 3.85082e-10) (3.11619e-08 -3.23478e-08 6.66323e-10) (3.28602e-08 -3.39779e-08 4.66962e-11) (3.38923e-08 -3.42456e-08 -2.54102e-10)
1350          (2.48104e-09 -3.21653e-09 -9.71902e-12) (2.48104e-09 -3.21653e-09 -9.71902e-12) (6.90886e-09 -8.46416e-09 8.29126e-10) (1.18809e-08 -1.42877e-08 2.14321e-09) (1.64193e-08 -1.92892e-08 8.06936e-10) (2.12527e-08 -2.52668e-08 -1.05342e-10) (2.44901e-08 -3.002e-08 -5.7488e-10) (2.7803e-08 -3.24945e-08 -1.19347e-09) (3.04559e-08 -3.34771e-08 -1.85695e-09) (3.21166e-08 -3.41228e-08 -3.02893e-09) (3.2038e-08 -3.37116e-08 -2.56953e-09)
1400          (2.6478e-09 -2.72948e-09 -2.26256e-10) (2.6478e-09 -2.72948e-09 -2.26256e-10) (6.93997e-09 -8.66992e-09 -6.08838e-10) (1.15282e-08 -1.4161e-08 -2.13426e-10) (1.63451e-08 -1.99043e-08 9.83976e-10) (2.06722e-08 -2.53413e-08 2.44713e-09) (2.52115e-08 -2.95667e-08 1.95101e-09) (2.81213e-08 -3.17118e-08 1.14249e-09) (3.10309e-08 -3.30611e-08 5.21678e-11) (3.26733e-08 -3.42377e-08 7.95469e-10) (3.30178e-08 -3.40761e-08 1.19692e-09)
1450          (2.69741e-09 -2.29289e-09 9.39097e-11) (2.69741e-09 -2.29289e-09 9.39097e-11) (7.77515e-09 -8.45317e-09 -1.5372e-10) (1.15864e-08 -1.40482e-08 -1.80905e-09) (1.63236e-08 -1.91945e-08 -1.66661e-09) (2.06136e-08 -2.53875e-08 -1.2352e-09) (2.41272e-08 -2.95354e-08 -4.57274e-10) (2.7773e-08 -3.15757e-08 -7.96911e-10) (3.0733e-08 -3.28663e-08 -1.33728e-09) (3.22852e-08 -3.3645e-08 -1.19156e-09) (3.27111e-08 -3.36246e-08 -1.66879e-09)
1500          (2.26574e-09 -2.84599e-09 3.00536e-10) (2.26574e-09 -2.84599e-09 3.00536e-10) (7.40624e-09 -9.05294e-09 6.01246e-10) (1.12719e-08 -1.41939e-08 3.5205e-10) (1.63463e-08 -2.02606e-08 1.2532e-09) (2.10221e-08 -2.57392e-08 2.99705e-09) (2.56338e-08 -2.99118e-08 2.0338e-09) (2.7851e-08 -3.16191e-08 3.30701e-11) (3.10978e-08 -3.33421e-08 -9.80872e-10) (3.32012e-08 -3.45951e-08 -1.1272e-09) (3.28713e-08 -3.42119e-08 1.96102e-10)
1550          (2.3598e-09 -3.01016e-09 6.9976e-10) (2.3598e-09 -3.01016e-09 6.9976e-10) (6.70649e-09 -8.45486e-09 1.28304e-09) (1.1632e-08 -1.37196e-08 1.58815e-09) (1.63909e-08 -1.90114e-08 1.939e-09) (2.12724e-08 -2.53463e-08 1.82944e-09) (2.46594e-08 -2.9914e-08 5.14065e-11) (2.72975e-08 -3.16542e-08 6.85495e-10) (3.02159e-08 -3.29404e-08 4.66424e-10) (3.23745e-08 -3.33157e-08 -8.47166e-12) (3.25788e-08 -3.35315e-08 -2.06795e-09)
1600          (2.41865e-09 -2.62702e-09 1.39032e-10) (2.41865e-09 -2.62702e-09 1.39032e-10) (6.79907e-09 -8.50267e-09 5.71953e-10) (1.19497e-08 -1.35996e-08 1.1624e-09) (1.61055e-08 -2.00951e-08 1.19943e-09) (2.09602e-08 -2.4704e-08 1.72457e-09) (2.54906e-08 -3.05453e-08 1.42455e-09) (2.7631e-08 -3.1945e-08 1.47119e-09) (3.03223e-08 -3.33015e-08 2.32125e-09) (3.27215e-08 -3.32948e-08 2.29852e-09) (3.2277e-08 -3.42389e-08 1.43505e-09)
1650          (2.68254e-09 -2.83488e-09 -9.27687e-10) (2.68254e-09 -2.83488e-09 -9.27687e-10) (6.45189e-09 -8.34078e-09 -1.57666e-09) (1.18974e-08 -1.3958e-08 -2.46639e-09) (1.6518e-08 -2.02853e-08 -2.68125e-09) (2.14335e-08 -2.53832e-08 -2.19233e-09) (2.42104e-08 -2.98982e-08 -2.29801e-09) (2.78861e-08 -3.23032e-08 -2.5384e-09) (3.08406e-08 -3.37073e-08 -3.25591e-09) (3.2191e-08 -3.39789e-08 -3.45682e-09) (3.25672e-08 -3.44853e-08 -4.84763e-09)
1700          (1.81558e-09 -2.84345e-09 5.33741e-11) (1.81558e-09 -2.84345e-09 5.33741e-11) (7.38185e-09 -8.09704e-09 1.75417e-10) (1.18267e-08 -1.38803e-08 1.82109e-09) (1.62772e-08 -1.96882e-08 2.41088e-09) (2.07589e-08 -2.4713e-08 3.04061e-09) (2.42539e-08 -2.94774e-08 2.47864e-09) (2.75189e-08 -3.18834e-08 2.77155e-09) (3.09155e-08 -3.25591e-08 2.89057e-09) (3.25397e-08 -3.2951e-08 1.12965e-09) (3.22468e-08 -3.35828e-08 -1.05656e-10)
1750          (2.33142e-09 -2.81172e-09 7.71612e-11) (2.33142e-09 -2.81172e-09 7.71612e-11) (6.21116e-09 -8.79892e-09 4.7117e-10) (1.20497e-08 -1.31513e-08 1.59828e-11) (1.60397e-08 -1.94231e-08 -1.48491e-12) (2.10709e-08 -2.50904e-08 5.46993e-10) (2.39602e-08 -2.9523e-08 1.28276e-09) (2.72808e-08 -3.14101e-08 1.8572e-09) (3.08645e-08 -3.28962e-08 1.90827e-09) (3.23483e-08 -3.31557e-08 2.3715e-09) (3.29702e-08 -3.31921e-08 1.7637e-09)
1800          (2.43604e-09 -2.50987e-09 -6.56642e-10) (2.43604e-09 -2.50987e-09 -6.56642e-10) (7.54e-09 -7.98465e-09 -1.23869e-09) (1.1941e-08 -1.47529e-08 -1.20997e-09) (1.68957e-08 -1.98248e-08 -6.76934e-10) (2.18674e-08 -2.55923e-08 -7.42866e-10) (2.492e-08 -3.04055e-08 -1.54341e-09) (2.78305e-08 -3.17658e-08 -2.47312e-09) (3.1421e-08 -3.34753e-08 -2.47093e-09) (3.27862e-08 -3.41699e-08 -2.22625e-09) (3.32183e-08 -3.38775e-08 -5.13027e-09)
1850          (2.13024e-09 -2.80659e-09 6.59147e-10) (2.13024e-09 -2.80659e-09 6.59147e-10) (7.23124e-09 -8.43419e-09 7.41185e-10) (1.11641e-08 -1.39506e-08 3.49453e-10) (1.56396e-08 -1.96805e-08 7.67474e-10) (2.10826e-08 -2.54556e-08 -1.00697e-10) (2.4591e-08 -2.994e-08 -2.07619e-10) (2.67099e-08 -3.15721e-08 3.28257e-10) (2.8813e-08 -3.3398e-08 -6.13259e-10) (3.149e-08 -3.35433e-08 4.43189e-10) (3.13922e-08 -3.32203e-08 3.87437e-10)
1900          (2.09809e-09 -2.40747e-09 -1.89053e-10) (2.09809e-09 -2.40747e-09 -1.89053e-10) (7.12918e-09 -8.58774e-09 -2.79884e-11) (1.09258e-08 -1.44376e-08 1.96446e-09) (1.60438e-08 -2.01442e-08 1.96084e-09) (2.08262e-08 -2.53423e-08 1.31725e-09) (2.42792e-08 -2.99905e-08 1.75102e-09) (2.76422e-08 -3.21777e-08 1.73971e-09) (3.02465e-08 -3.28078e-08 2.11236e-09) (3.20381e-08 -3.31501e-08 2.52163e-09) (3.21024e-08 -3.39706e-08 2.44974e-09)
1950          (2.14472e-09 -2.58135e-09 4.45755e-10) (2.14472e-09 -2.58135e-09 4.45755e-10) (7.12064e-09 -8.35017e-09 -6.56413e-10) (1.18618e-08 -1.4362e-08 -5.54772e-10) (1.62706e-08 -1.94695e-08 2.22337e-10) (2.14277e-08 -2.46051e-08 -4.59208e-10) (2.4685e-08 -2.95306e-08 -2.1862e-09) (2.74949e-08 -3.15864e-08 -2.76393e-09) (3.04841e-08 -3.23863e-08 -2.2716e-09) (3.33294e-08 -3.31558e-08 -1.78957e-09) (3.19805e-08 -3.28287e-08 -1.59437e-09)
2000          (1.96413e-09 -2.76942e-09 -5.88058e-10) (1.96413e-09 -2.76942e-09 -5.88058e-10) (6.80994e-09 -8.23276e-09 -4.29419e-10) (1.1817e-08 -1.36477e-08 -6.95785e-10) (1.70207e-08 -1.89165e-08 -9.98647e-10) (2.15467e-08 -2.46305e-08 -2.17124e-10) (2.54342e-08 -3.01434e-08 1.44808e-10) (2.83901e-08 -3.22189e-08 1.00597e-10) (3.16957e-08 -3.34206e-08 7.86597e-10) (3.32196e-08 -3.3483e-08 7.55709e-11) (3.27956e-08 -3.36398e-08 -1.05703e-09)
2050          (2.60996e-09 -2.87105e-09 -1.00194e-09) (2.60996e-09 -2.87105e-09 -1.00194e-09) (7.21917e-09 -8.33312e-09 -1.95427e-09) (1.21957e-08 -1.39786e-08 -9.82521e-10) (1.67259e-08 -2.01391e-08 -2.70935e-10) (2.18446e-08 -2.55119e-08 -1.01808e-09) (2.45702e-08 -2.99876e-08 -2.23273e-09) (2.75128e-08 -3.24195e-08 -2.55558e-09) (3.0485e-08 -3.40579e-08 -1.4007e-09) (3.33008e-08 -3.40224e-08 -9.71414e-10) (3.32522e-08 -3.45998e-08 -1.07427e-09)
2100          (2.60264e-09 -2.95e-09 3.37765e-10) (2.60264e-09 -2.95e-09 3.37765e-10) (7.34974e-09 -8.27111e-09 6.5227e-10) (1.17913e-08 -1.46222e-08 2.0019e-09) (1.68018e-08 -2.02867e-08 2.64902e-09) (2.1667e-08 -2.63734e-08 2.37393e-09) (2.50039e-08 -3.15681e-08 2.74365e-09) (2.86063e-08 -3.28033e-08 2.70717e-09) (3.07179e-08 -3.33645e-08 2.11123e-09) (3.28407e-08 -3.32239e-08 1.5294e-09) (3.34791e-08 -3.43051e-08 1.03598e-09)
2150          (2.18362e-09 -2.73893e-09 5.70837e-10) (2.18362e-09 -2.73893e-09 5.70837e-10) (7.40861e-09 -8.73719e-09 9.70993e-10) (1.22337e-08 -1.33619e-08 1.46146e-09) (1.63586e-08 -2.01525e-08 1.43915e-09) (2.10335e-08 -2.5643e-08 7.89285e-10) (2.46525e-08 -3.03135e-08 -6.33075e-10) (2.94334e-08 -3.20717e-08 -1.18092e-09) (3.05341e-08 -3.22183e-08 -1.54632e-09) (3.35226e-08 -3.29665e-08 -1.57507e-09) (3.28774e-08 -3.40917e-08 -2.38939e-09)
2200          (1.67787e-09 -3.50602e-09 -4.00362e-11) (1.67787e-09 -3.50602e-09 -4.00362e-11) (7.73095e-09 -8.56276e-09 6.19242e-10) (1.18412e-08 -1.37637e-08 1.06677e-09) (1.55253e-08 -1.96752e-08 1.91016e-10) (2.0643e-08 -2.50105e-08 1.14512e-09) (2.43029e-08 -2.94051e-08 1.52824e-09) (2.74605e-08 -3.13551e-08 5.29081e-10) (3.02377e-08 -3.31066e-08 -3.30298e-10) (3.28785e-08 -3.35945e-08 -4.54088e-10) (3.23127e-08 -3.37441e-08 -4.02035e-10)
2250          (2.28182e-09 -3.36933e-09 5.78028e-10) (2.28182e-09 -3.36933e-09 5.78028e-10) (6.72155e-09 -8.58382e-09 1.03811e-10) (1.18715e-08 -1.40994e-08 -9.0637e-10) (1.63574e-08 -1.9603e-08 -1.82213e-09) (2.04937e-08 -2.45126e-08 -1.74317e-09) (2.51041e-08 -2.99937e-08 -6.9925e-10) (2.82555e-08 -3.18486e-08 -1.72225e-09) (3.07746e-08 -3.25387e-08 -1.43861e-09) (3.26454e-08 -3.38823e-08 -1.91689e-09) (3.30284e-08 -3.40102e-08 -3.22287e-09)
2300          (2.7915e-09 -2.55057e-09 -2.95388e-10) (2.7915e-09 -2.55057e-09 -2.95388e-10) (6.88083e-09 -8.54403e-09 1.37835e-10) (1.14591e-08 -1.43433e-08 -1.25023e-10) (1.58758e-08 -1.98639e-08 5.13274e-10) (2.0923e-08 -2.4735e-08 8.65538e-10) (2.45213e-08 -3.01522e-08 1.16585e-10) (2.76731e-08 -3.16522e-08 -1.27128e-09) (3.03402e-08 -3.30669e-08 -2.27007e-11) (3.18624e-08 -3.32342e-08 -5.69666e-10) (3.20235e-08 -3.31516e-08 -5.95066e-10)
2350          (2.48507e-09 -2.99949e-09 1.6482e-10) (2.48507e-09 -2.99949e-09 1.6482e-10) (7.49704e-09 -9.15731e-09 4.7954e-10) (1.1691e-08 -1.36434e-08 1.89219e-09) (1.61024e-08 -1.92656e-08 1.41812e-09) (2.10178e-08 -2.46088e-08 1.73606e-09) (2.48739e-08 -2.98149e-08 1.03364e-09) (2.7442e-08 -3.17622e-08 1.35793e-09) (3.07389e-08 -3.29832e-08 2.04323e-09) (3.32128e-08 -3.36624e-08 -1.85042e-10) (3.28908e-08 -3.40519e-08 2.51382e-10)
2400          (2.19789e-09 -3.39442e-09 5.10202e-10) (2.19789e-09 -3.39442e-09 5.10202e-10) (6.90536e-09 -8.87946e-09 2.6554e-11) (1.18395e-08 -1.42955e-08 1.17266e-09) (1.66676e-08 -1.9645e-08 2.10861e-09) (2.10326e-08 -2.50897e-08 2.10459e-09) (2.50677e-08 -2.99349e-08 1.77633e-09) (2.80484e-08 -3.18173e-08 1.49915e-09) (3.06639e-08 -3.32251e-08 1.20505e-09) (3.30552e-08 -3.41215e-08 9.82105e-10) (3.30115e-08 -3.43842e-08 2.25095e-09)
2450          (2.14654e-09 -2.59516e-09 5.55725e-10) (2.14654e-09 -2.59516e-09 5.55725e-10) (7.53715e-09 -8.10259e-09 8.81062e-10) (1.16744e-08 -1.39415e-08 -1.11382e-10) (1.61698e-08 -1.9617e-08 -1.22831e-09) (2.05478e-08 -2.45213e-08 -1.61286e-09) (2.38249e-08 -2.92951e-08 -1.99868e-09) (2.69782e-08 -3.11214e-08 -1.89385e-09) (2.94571e-08 -3.26432e-08 -1.49713e-09) (3.22763e-08 -3.32037e-08 -1.54026e-09) (3.15816e-08 -3.31487e-08 -1.0359e-09)
2500          (2.01808e-09 -2.7624e-09 4.51666e-10) (2.01808e-09 -2.7624e-09 4.51666e-10) (7.38441e-09 -8.77221e-09 -3.84101e-11) (1.15445e-08 -1.44173e-08 -4.39181e-10) (1.60956e-08 -1.97307e-08 -1.28321e-10) (2.11793e-08 -2.55371e-08 -8.2817e-10) (2.49215e-08 -3.02303e-08 -1.26733e-09) (2.71465e-08 -3.17169e-08 -1.71308e-09) (3.02639e-08 -3.34961e-08 -7.45512e-10) (3.1851e-08 -3.39925e-08 -1.11039e-09) (3.21957e-08 -3.38012e-08 -1.68959e-09)
2550          (3.34482e-09 -3.00776e-09 9.56576e-10) (3.34482e-09 -3.00776e-09 9.56576e-10) (6.80303e-09 -8.47773e-09 2.04712e-09) (1.17048e-08 -1.45703e-08 3.25112e-09) (1.63908e-08 -1.98806e-08 2.62578e-09) (2.12076e-08 -2.52415e-08 2.61636e-09) (2.55886e-08 -3.02636e-08 2.12328e-09) (2.78173e-08 -3.25075e-08 1.41354e-09) (3.04929e-08 -3.3233e-08 3.87032e-09) (3.22017e-08 -3.30341e-08 4.74535e-09) (3.19486e-08 -3.39571e-08 4.22478e-09)
2600          (2.50603e-09 -2.06193e-09 -4.89299e-10) (2.50603e-09 -2.06193e-09 -4.89299e-10) (7.06016e-09 -8.39869e-09 -6.14115e-10) (1.19766e-08 -1.38923e-08 9.16862e-10) (1.65907e-08 -2.01346e-08 1.57096e-09) (2.11165e-08 -2.5609e-08 7.54571e-10) (2.52918e-08 -2.98777e-08 -5.01344e-10) (2.84299e-08 -3.22792e-08 -1.00754e-09) (3.06566e-08 -3.24421e-08 -8.34476e-10) (3.25436e-08 -3.39154e-08 -2.8317e-09) (3.213e-08 -3.41964e-08 -2.72949e-09)
2650          (2.78745e-09 -2.76825e-09 -3.99535e-10) (2.78745e-09 -2.76825e-09 -3.99535e-10) (7.04358e-09 -8.6271e-09 -2.01501e-10) (1.15744e-08 -1.36825e-08 4.05358e-10) (1.61892e-08 -1.96761e-08 1.79617e-10) (2.07855e-08 -2.49921e-08 -4.97125e-10) (2.41544e-08 -2.99122e-08 -6.3375e-10) (2.77616e-08 -3.146e-08 -1.42984e-09) (2.99884e-08 -3.2887e-08 -8.76826e-10) (3.21237e-08 -3.34727e-08 -1.9776e-09) (3.2785e-08 -3.34924e-08 -2.0853e-09)
2700          (1.9285e-09 -2.77006e-09 1.77394e-10) (1.9285e-09 -2.77006e-09 1.77394e-10) (6.62003e-09 -7.97966e-09 -2.41034e-10) (1.16045e-08 -1.40778e-08 -6.71459e-10) (1.58946e-08 -1.96912e-08 -1.10656e-09) (2.05869e-08 -2.47337e-08 -9.2363e-10) (2.39149e-08 -2.94466e-08 -8.85102e-11) (2.59134e-08 -3.09374e-08 -6.97061e-10) (2.97546e-08 -3.18133e-08 -6.18165e-10) (3.0909e-08 -3.30982e-08 -6.09623e-10) (3.23941e-08 -3.26741e-08 6.899e-10)
2750          (2.57374e-09 -1.96881e-09 1.67726e-10) (2.57374e-09 -1.96881e-09 1.67726e-10) (7.23407e-09 -9.24006e-09 9.09515e-10) (1.21011e-08 -1.45284e-08 1.7038e-09) (1.63483e-08 -2.00624e-08 1.59986e-09) (2.18132e-08 -2.53562e-08 1.88004e-09) (2.51028e-08 -3.05664e-08 2.08322e-09) (2.79185e-08 -3.2019e-08 1.14552e-09) (3.14003e-08 -3.3732e-08 -6.44553e-10) (3.34655e-08 -3.43906e-08 -7.04275e-10) (3.35435e-08 -3.48224e-08 -5.01239e-12)
2800          (2.40578e-09 -2.86669e-09 3.76804e-10) (2.40578e-09 -2.86669e-09 3.76804e-10) (7.13987e-09 -8.96959e-09 3.31613e-10) (1.22957e-08 -1.47136e-08 3.39517e-10) (1.71496e-08 -1.94997e-08 7.25295e-10) (2.11599e-08 -2.58878e-08 1.44952e-09) (2.4511e-08 -3.01908e-08 1.73614e-09) (2.8094e-08 -3.2519e-08 2.2811e-09) (3.08922e-08 -3.32477e-08 2.0167e-09) (3.28726e-08 -3.38168e-08 1.13073e-09) (3.26246e-08 -3.38725e-08 3.50167e-10)
2850          (2.44265e-09 -2.76057e-09 -8.312e-10) (2.44265e-09 -2.76057e-09 -8.312e-10) (6.95395e-09 -8.73294e-09 -1.40454e-09) (1.17002e-08 -1.44592e-08 -1.95067e-09) (1.6193e-08 -1.88855e-08 -1.43315e-09) (2.04498e-08 -2.5262e-08 -1.71746e-09) (2.49332e-08 -2.92436e-08 -3.64076e-09) (2.78722e-08 -3.19665e-08 -3.91143e-09) (3.02623e-08 -3.28195e-08 -3.79077e-09) (3.31454e-08 -3.40605e-08 -3.76541e-09) (3.20462e-08 -3.45181e-08 -4.66714e-09)
2900          (2.21866e-09 -2.31836e-09 3.15514e-10) (2.21866e-09 -2.31836e-09 3.15514e-10) (7.02544e-09 -8.55252e-09 9.38138e-11) (1.15919e-08 -1.38886e-08 9.54822e-10) (1.66899e-08 -1.95319e-08 1.49327e-09) (2.07841e-08 -2.52211e-08 1.83482e-09) (2.50529e-08 -2.95315e-08 2.5198e-09) (2.75162e-08 -3.20967e-08 2.03826e-09) (3.07217e-08 -3.34933e-08 1.54438e-09) (3.27144e-08 -3.33422e-08 1.82862e-10) (3.31821e-08 -3.41326e-08 -1.7981e-09)
2950          (2.13402e-09 -2.56885e-09 5.05244e-11) (2.13402e-09 -2.56885e-09 5.05244e-11) (7.14777e-09 -8.93471e-09 8.50995e-10) (1.25385e-08 -1.41557e-08 1.05606e-09) (1.63778e-08 -1.94249e-08 5.86045e-10) (2.12068e-08 -2.49033e-08 1.89732e-09) (2.49953e-08 -3.01329e-08 1.23835e-09) (2.78439e-08 -3.15957e-08 -7.11912e-10) (3.13412e-08 -3.35844e-08 -1.5849e-09) (3.34839e-08 -3.41359e-08 -2.6936e-09) (3.3331e-08 -3.38186e-08 -2.25579e-09)
3000          (2.4802e-09 -3.62415e-09 -2.6104e-10) (2.4802e-09 -3.62415e-09 -2.6104e-10) (6.8612e-09 -9.17913e-09 -7.13191e-10) (1.21661e-08 -1.43657e-08 -1.58973e-09) (1.65135e-08 -2.04856e-08 -2.18589e-09) (2.11169e-08 -2.54243e-08 -2.26266e-09) (2.49301e-08 -2.99339e-08 -2.55169e-09) (2.87652e-08 -3.18196e-08 -1.56331e-09) (3.05923e-08 -3.28981e-08 -1.48262e-09) (3.27323e-08 -3.33157e-08 -2.49896e-09) (3.24998e-08 -3.37593e-08 -3.47412e-09)
3050          (2.09496e-09 -2.9001e-09 6.14251e-10) (2.09496e-09 -2.9001e-09 6.14251e-10) (7.0092e-09 -8.41567e-09 6.20613e-10) (1.16351e-08 -1.40703e-08 1.13288e-09) (1.64046e-08 -1.98396e-08 1.18665e-09) (2.16016e-08 -2.63112e-08 2.16014e-09) (2.55424e-08 -3.01555e-08 2.37616e-09) (2.78733e-08 -3.22937e-08 1.79742e-09) (3.07799e-08 -3.38092e-08 1.52659e-09) (3.24828e-08 -3.37604e-08 2.4845e-09) (3.25306e-08 -3.38267e-08 3.26834e-09)
3100          (1.84966e-09 -2.82676e-09 3.56057e-10) (1.84966e-09 -2.82676e-09 3.56057e-10) (7.15931e-09 -9.343e-09 7.4276e-10) (1.23195e-08 -1.50456e-08 1.3484e-09) (1.63924e-08 -2.05227e-08 1.94702e-09) (2.20068e-08 -2.58429e-08 2.497e-09) (2.50896e-08 -3.03448e-08 2.22425e-09) (2.8371e-08 -3.25516e-08 2.08886e-09) (3.13453e-08 -3.30801e-08 6.05265e-10) (3.29009e-08 -3.47234e-08 1.17756e-09) (3.27962e-08 -3.46963e-08 3.44498e-09)
3150          (2.89503e-09 -2.90178e-09 -4.92497e-10) (2.89503e-09 -2.90178e-09 -4.92497e-10) (7.76593e-09 -7.9347e-09 -8.29466e-10) (1.13684e-08 -1.478e-08 -3.5624e-10) (1.65318e-08 -2.02058e-08 3.49953e-10) (2.13183e-08 -2.56504e-08 4.63394e-10) (2.47951e-08 -3.01553e-08 1.1099e-09) (2.76962e-08 -3.22249e-08 7.66299e-10) (3.05143e-08 -3.3847e-08 1.22196e-09) (3.34707e-08 -3.43283e-08 2.17708e-09) (3.3702e-08 -3.46962e-08 5.87148e-11)
3200          (2.33976e-09 -3.00256e-09 -6.34278e-11) (2.33976e-09 -3.00256e-09 -6.34278e-11) (6.90972e-09 -8.50992e-09 2.22014e-10) (1.20471e-08 -1.3973e-08 4.28663e-10) (1.64955e-08 -1.96451e-08 -1.51883e-09) (2.08941e-08 -2.49576e-08 -2.53505e-09) (2.50492e-08 -2.94333e-08 -2.15472e-09) (2.82173e-08 -3.21982e-08 -1.84531e-09) (3.06769e-08 -3.27733e-08 -1.16764e-09) (3.34026e-08 -3.36335e-08 -1.18543e-09) (3.25493e-08 -3.39922e-08 -1.1761e-09)
3250          (2.40615e-09 -3.42295e-09 3.27336e-10) (2.40615e-09 -3.42295e-09 3.27336e-10) (7.32831e-09 -8.35397e-09 9.51664e-11) (1.20843e-08 -1.31399e-08 -3.60824e-10) (1.61252e-08 -1.90096e-08 -6.42328e-10) (2.07518e-08 -2.50188e-08 -4.32157e-10) (2.48025e-08 -2.98528e-08 -4.32465e-10) (2.76203e-08 -3.13757e-08 3.03494e-10) (3.06881e-08 -3.23132e-08 4.88676e-10) (3.29109e-08 -3.29852e-08 1.00328e-09) (3.29809e-08 -3.3883e-08 1.04695e-09)
3300          (2.53308e-09 -2.34311e-09 3.25514e-10) (2.53308e-09 -2.34311e-09 3.25514e-10) (7.32699e-09 -8.03617e-09 5.32431e-11) (1.18561e-08 -1.40558e-08 -1.65228e-10) (1.59414e-08 -1.9016e-08 -2.62781e-10) (2.07933e-08 -2.51764e-08 1.69722e-10) (2.43751e-08 -2.96277e-08 -1.42293e-10) (2.74529e-08 -3.20044e-08 2.06229e-10) (3.03449e-08 -3.28132e-08 9.953e-10) (3.27527e-08 -3.32399e-08 2.44614e-10) (3.33186e-08 -3.39634e-08 3.71667e-10)