# Probe 0 (0.0015 0.0015 0)
# Probe 1 (0.0015 0.0015 0.002)
# Probe 2 (0.0015 0.0015 0.004)
# Probe 3 (0.0015 0.0015 0.006)
# Probe 4 (0.0015 0.0015 0.008)
# Probe 5 (0.0015 0.0015 0.01)
# Probe 6 (0.0015 0.0015 0.012)
# Probe 7 (0.0015 0.0015 0.014)
# Probe 8 (0.0015 0.0015 0.016)
# Probe 9 (0.0015 0.0015 0.018)
# Probe 10 (0.0015 0.0015 0.02)
# Time        0             1             2             3             4             5             6             7             8             9             10           
50            63683.7       63683.7       63683.7       63683.7       63683.7       63683.7       63683.7       63683.7       63683.7       63683.7       63683.7      
100           102976        102976        102976        102976        102976        102976        102976        102976        102976        102976        102976       
150           116003        116003        116003        116003        116003        116003        116003        116003        116003        116003        116003       
200           119707        119707        119707        119707        119707        119707        119707        119707        119707        119707        119707       
250           120664        120664        120664        120664        120664        120664        120664        120664        120664        120664        120664       
300           120911        120911        120911        120911        120911        120911        120911        120911        120911        120911        120911       
350           120975        120975        120975        120975        120975        120975        120975        120975        120975        120975        120975       
400           120993        120993        120993        120993        120993        120993        120993        120993        120993        120993        120993       
450           120998        120998        120998        120998        120998        120998        120998        120998        120998        120998        120998       
500           120999        120999        120999        120999        120999        120999        120999        120999        120999        120999        120999       
550           120999        120999        120999        120999        120999        120999        120999        120999        120999        120999        120999       
600           120999        120999        120999        120999        120999        120999        120999        120999        120999        120999        120999       
650           120999        120999        120999        120999        120999        120999        120999        120999        120999        120999        120999       
700           120999        120999        120999        120999        120999        120999        120999        120999        120999        120999        120999       
750           120999        120999        120999        120999        120999        120999        120999        120999        120999        120999        120999       
800           120999        120999        120999        120999        120999        120999        120999        120999        120999        120999        120999       
850           120999        120999        120999        120999        120999        120999        120999        120999        120999        120999        120999       
900           120999        120999        120999        120999        120999        120999        120999        120999        120999        120999        120999       
950           120999        120999        120999        120999        120999        120999        120999        120999        120999        120999        120999       
1000          120999        120999        120999        120999        120999        120999        120999        120999        120999        120999        120999       
1050          120999        120999        120999        120999        120999        120999        120999        120999        120999        120999        120999       
1100          120999        120999        120999        120999        120999        120999        120999        120999        120999        120999        120999       
1150          120999        120999        120999        120999        120999        120999        120999        120999        120999        120999        120999       
1200          120999        120999        120999        120999        120999        120999        120999        120999        120999        120999        120999       
1250          120999        120999        120999        120999        120999        120999        120999        120999        120999        120999        120999       
1300          120999        120999        120999        120999        120999        120999        120999        120999        120999        120999        120999       
1350          120999        120999        120999        120999        120999        120999        120999        120999        120999        120999        120999       
1400          120999        120999        120999        120999        120999        120999        120999        120999        120999        120999        120999       
1450          120999        120999        120999        120999        120999        120999        120999        120999        120999        120999        120999       
1500          120999        120999        120999        120999        120999        120999        120999        120999        120999        120999        120999       
1550          120999        120999        120999        120999        120999        120999        120999        120999        120999        120999        120999       
1600          120999        120999        120999        120999        120999        120999        120999        120999        120999        120999        120999       
1650          120999        120999        120999        120999        120999        120999        120999        120999        120999        120999        120999       
1700          120999        120999        120999        120999        120999        120999        120999        120999        120999        120999        120999       
1750          120999        120999        120999        120999        120999        120999        120999        120999        120999        120999        120999       
1800          120999        120999        120999        120999        120999        120999        120999        120999        120999        120999        120999       
1850          120999        120999        120999        120999        120999        120999        120999        120999        120999        120999        120999       
1900          120999        120999        120999        120999        120999        120999        120999        120999        120999        120999        120999       
1950          120999        120999        120999        120999        120999        120999        120999        120999        120999        120999        120999       
2000          120999        120999        120999        120999        120999        120999        120999        120999        120999        120999        120999       
2050          120999        120999        120999        120999        120999        120999        120999        120999        120999        120999        120999       
2100          120999        120999        120999        120999        120999        120999        120999        120999        120999        120999        120999       
2150          120999        120999        120999        120999        120999        120999        120999        120999        120999        120999        120999       
2200          120999        120999        120999        120999        120999        120999        120999        120999        120999        120999        120999       
2250          120999        120999        120999        120999        120999        120999        120999        120999        120999        120999        120999       
2300          120999        120999        120999        120999        120999        120999        120999        120999        120999        120999        120999       
2350          120999        120999        120999        120999        120999        120999        120999        120999        120999        120999        120999       
2400          120999        120999        120999        120999        120999        120999        120999        120999        120999        120999        120999       
2450          120999        120999        120999        120999        120999        120999        120999        120999        120999        120999        120999       
2500          120999        120999        120999        120999        120999        120999        120999        120999        120999        120999        120999       
2550          120999        120999        120999        120999        120999        120999        120999        120999        120999        120999        120999       
2600          120999        120999        120999        120999        120999        120999        120999        120999        120999        120999        120999       
2650          120999        120999        120999        120999        120999        120999        120999        120999        120999        120999        120999       
2700          120999        120999        120999        120999        120999        120999        120999        120999        120999        120999        120999       
2750          120999        120999        120999        120999        120999        120999        120999        120999        120999        120999        120999       
2800          120999        120999        120999        120999        120999        120999        120999        120999        120999        120999        120999       
2850          120999        120999        120999        120999        120999        120999        120999        120999        120999        120999        120999       
2900          120999        120999        120999        120999        120999        120999        120999        120999        120999        120999        120999       
2950          120999        120999        120999        120999        120999        120999        120999        120999        120999        120999        120999       
3000          120999        120999        120999        120999        120999        120999        120999        120999        120999        120999        120999       
3050          120999        120999        120999        120999        120999        120999        120999        120999        120999        120999        120999       
3100          120999        120999        120999        120999        120999        120999        120999        120999        120999        120999        120999       
3150          120999        120999        120999        120999        120999        120999        120999        120999        120999        120999        120999       
3200          120999        120999        120999        120999        120999        120999        120999        120999        120999        120999        120999       
3250          120999        120999        120999        120999        120999        120999        120999        120999        120999        120999        120999       
3300          120999        120999        120999        120999        120999        120999        120999        120999        120999        120999        120999       
3350          120999        120999        120999        120999        120999        120999        120999        120999        120999        120999        120999       
3400          120999        120999        120999        120999        120999        120999        120999        120999        120999        120999        120999       
3450          120999        120999        120999        120999        120999        120999        120999        120999        120999        120999        120999       
3500          120999        120999        120999        120999        120999        120999        120999        120999        120999        120999        120999       
3550          120999        120999        120999        120999        120999        120999        120999        120999        120999        120999        120999       
3600          120999        120999        120999        120999        120999        120999        120999        120999        120999        120999        120999       
3650          120999        120999        120999        120999        120999        120999        120999        120999        120999        120999        120999       
3700          120999        120999        120999        120999        120999        120999        120999        120999        120999        120999        120999       
3750          120999        120999        120999        120999        120999        120999        120999        120999        120999        120999        120999       
3800          120999        120999        120999        120999        120999        120999        120999        120999        120999        120999        120999       
3850          120999        120999        120999        120999        120999        120999        120999        120999        120999        120999        120999       
3900          120999        120999        120999        120999        120999        120999        120999        120999        120999        120999        120999       
3950          120999        120999        120999        120999        120999        120999        120999        120999        120999        120999        120999       
4000          120999        120999        120999        120999        120999        120999        120999        120999        120999        120999        120999       
4050          120999        120999        120999        120999        120999        120999        120999        120999        120999        120999        120999       
4100          120999        120999        120999        120999        120999        120999        120999        120999        120999        120999        120999       
4150          120999        120999        120999        120999        120999        120999        120999        120999        120999        120999        120999       
4200          120999        120999        120999        120999        120999        120999        120999        120999        120999        120999        120999       
4250          120999        120999        120999        120999        120999        120999        120999        120999        120999        120999        120999       
4300          120999        120999        120999        120999        120999        120999        120999        120999        120999        120999        120999       
4350          120999        120999        120999        120999        120999        120999        120999        120999        120999        120999        120999       
4400          120999        120999        120999        120999        120999        120999        120999        120999        120999        120999        120999       
4450          120999        120999        120999        120999        120999        120999        120999        120999        120999        120999        120999       
4500          120999        120999        120999        120999        120999        120999        120999        120999        120999        120999        120999       
4550          120999        120999        120999        120999        120999        120999        120999        120999        120999        120999        120999       
4600          120999        120999        120999        120999        120999        120999        120999        120999        120999        120999        120999       
4650          120999        120999        120999        120999        120999        120999        120999        120999        120999        120999        120999       
4700          120999        120999        120999        120999        120999        120999        120999        120999        120999        120999        120999       
4750          120999        120999        120999        120999        120999        120999        120999        120999        120999        120999        120999       
4800          120999        120999        120999        120999        120999        120999        120999        120999        120999        120999        120999       
4850          120999        120999        120999        120999        120999        120999        120999        120999        120999        120999        120999       
4900          120999        120999        120999        120999        120999        120999        120999        120999        120999        120999        120999       
4950          120999        120999        120999        120999        120999        120999        120999        120999        120999        120999        120999       
5000          120999        120999        120999        120999        120999        120999        120999        120999        120999        120999        120999       
