# Probe 0 (0.0015 0.0015 0)
# Probe 1 (0.0015 0.0015 0.002)
# Probe 2 (0.0015 0.0015 0.004)
# Probe 3 (0.0015 0.0015 0.006)
# Probe 4 (0.0015 0.0015 0.008)
# Probe 5 (0.0015 0.0015 0.01)
# Probe 6 (0.0015 0.0015 0.012)
# Probe 7 (0.0015 0.0015 0.014)
# Probe 8 (0.0015 0.0015 0.016)
# Probe 9 (0.0015 0.0015 0.018)
# Probe 10 (0.0015 0.0015 0.02)
# Time        0             1             2             3             4             5             6             7             8             9             10           
50            0.00066662    0.00066662    0.00066662    0.00066662    0.00066662    0.00066662    0.00066662    0.00066662    0.00066662    0.00066662    0.00066662   
100           0.00066662    0.00066662    0.00066662    0.00066662    0.00066662    0.00066662    0.00066662    0.00066662    0.00066662    0.00066662    0.00066662   
150           0.00066662    0.00066662    0.00066662    0.00066662    0.00066662    0.00066662    0.00066662    0.00066662    0.00066662    0.00066662    0.00066662   
200           0.00066662    0.00066662    0.00066662    0.00066662    0.00066662    0.00066662    0.00066662    0.00066662    0.00066662    0.00066662    0.00066662   
250           0.00066662    0.00066662    0.00066662    0.00066662    0.00066662    0.00066662    0.00066662    0.00066662    0.00066662    0.00066662    0.00066662   
300           0.00066662    0.00066662    0.00066662    0.00066662    0.00066662    0.00066662    0.00066662    0.00066662    0.00066662    0.00066662    0.00066662   
350           0.00066662    0.00066662    0.00066662    0.00066662    0.00066662    0.00066662    0.00066662    0.00066662    0.00066662    0.00066662    0.00066662   
400           0.00066662    0.00066662    0.00066662    0.00066662    0.00066662    0.00066662    0.00066662    0.00066662    0.00066662    0.00066662    0.00066662   
450           0.00066662    0.00066662    0.00066662    0.00066662    0.00066662    0.00066662    0.00066662    0.00066662    0.00066662    0.00066662    0.00066662   
500           0.00066662    0.00066662    0.00066662    0.00066662    0.00066662    0.00066662    0.00066662    0.00066662    0.00066662    0.00066662    0.00066662   
550           0.00066662    0.00066662    0.00066662    0.00066662    0.00066662    0.00066662    0.00066662    0.00066662    0.00066662    0.00066662    0.00066662   
600           0.00066662    0.00066662    0.00066662    0.00066662    0.00066662    0.00066662    0.00066662    0.00066662    0.00066662    0.00066662    0.00066662   
650           0.00066662    0.00066662    0.00066662    0.00066662    0.00066662    0.00066662    0.00066662    0.00066662    0.00066662    0.00066662    0.00066662   
700           0.00066662    0.00066662    0.00066662    0.00066662    0.00066662    0.00066662    0.00066662    0.00066662    0.00066662    0.00066662    0.00066662   
750           0.00066662    0.00066662    0.00066662    0.00066662    0.00066662    0.00066662    0.00066662    0.00066662    0.00066662    0.00066662    0.00066662   
800           0.00066662    0.00066662    0.00066662    0.00066662    0.00066662    0.00066662    0.00066662    0.00066662    0.00066662    0.00066662    0.00066662   
850           0.00066662    0.00066662    0.00066662    0.00066662    0.00066662    0.00066662    0.00066662    0.00066662    0.00066662    0.00066662    0.00066662   
900           0.00066662    0.00066662    0.00066662    0.00066662    0.00066662    0.00066662    0.00066662    0.00066662    0.00066662    0.00066662    0.00066662   
950           0.00066662    0.00066662    0.00066662    0.00066662    0.00066662    0.00066662    0.00066662    0.00066662    0.00066662    0.00066662    0.00066662   
1000          0.00066662    0.00066662    0.00066662    0.00066662    0.00066662    0.00066662    0.00066662    0.00066662    0.00066662    0.00066662    0.00066662   
1050          0.00066662    0.00066662    0.00066662    0.00066662    0.00066662    0.00066662    0.00066662    0.00066662    0.00066662    0.00066662    0.00066662   
1100          0.00066662    0.00066662    0.00066662    0.00066662    0.00066662    0.00066662    0.00066662    0.00066662    0.00066662    0.00066662    0.00066662   
1150          0.00066662    0.00066662    0.00066662    0.00066662    0.00066662    0.00066662    0.00066662    0.00066662    0.00066662    0.00066662    0.00066662   
1200          0.00066662    0.00066662    0.00066662    0.00066662    0.00066662    0.00066662    0.00066662    0.00066662    0.00066662    0.00066662    0.00066662   
1250          0.00066662    0.00066662    0.00066662    0.00066662    0.00066662    0.00066662    0.00066662    0.00066662    0.00066662    0.00066662    0.00066662   
1300          0.00066662    0.00066662    0.00066662    0.00066662    0.00066662    0.00066662    0.00066662    0.00066662    0.00066662    0.00066662    0.00066662   
1350          0.00066662    0.00066662    0.00066662    0.00066662    0.00066662    0.00066662    0.00066662    0.00066662    0.00066662    0.00066662    0.00066662   
1400          0.00066662    0.00066662    0.00066662    0.00066662    0.00066662    0.00066662    0.00066662    0.00066662    0.00066662    0.00066662    0.00066662   
1450          0.00066662    0.00066662    0.00066662    0.00066662    0.00066662    0.00066662    0.00066662    0.00066662    0.00066662    0.00066662    0.00066662   
1500          0.00066662    0.00066662    0.00066662    0.00066662    0.00066662    0.00066662    0.00066662    0.00066662    0.00066662    0.00066662    0.00066662   
1550          0.00066662    0.00066662    0.00066662    0.00066662    0.00066662    0.00066662    0.00066662    0.00066662    0.00066662    0.00066662    0.00066662   
1600          0.00066662    0.00066662    0.00066662    0.00066662    0.00066662    0.00066662    0.00066662    0.00066662    0.00066662    0.00066662    0.00066662   
1650          0.00066662    0.00066662    0.00066662    0.00066662    0.00066662    0.00066662    0.00066662    0.00066662    0.00066662    0.00066662    0.00066662   
1700          0.00066662    0.00066662    0.00066662    0.00066662    0.00066662    0.00066662    0.00066662    0.00066662    0.00066662    0.00066662    0.00066662   
1750          0.00066662    0.00066662    0.00066662    0.00066662    0.00066662    0.00066662    0.00066662    0.00066662    0.00066662    0.00066662    0.00066662   
1800          0.00066662    0.00066662    0.00066662    0.00066662    0.00066662    0.00066662    0.00066662    0.00066662    0.00066662    0.00066662    0.00066662   
1850          0.00066662    0.00066662    0.00066662    0.00066662    0.00066662    0.00066662    0.00066662    0.00066662    0.00066662    0.00066662    0.00066662   
1900          0.00066662    0.00066662    0.00066662    0.00066662    0.00066662    0.00066662    0.00066662    0.00066662    0.00066662    0.00066662    0.00066662   
1950          0.00066662    0.00066662    0.00066662    0.00066662    0.00066662    0.00066662    0.00066662    0.00066662    0.00066662    0.00066662    0.00066662   
2000          0.00066662    0.00066662    0.00066662    0.00066662    0.00066662    0.00066662    0.00066662    0.00066662    0.00066662    0.00066662    0.00066662   
2050          0.00066662    0.00066662    0.00066662    0.00066662    0.00066662    0.00066662    0.00066662    0.00066662    0.00066662    0.00066662    0.00066662   
2100          0.00066662    0.00066662    0.00066662    0.00066662    0.00066662    0.00066662    0.00066662    0.00066662    0.00066662    0.00066662    0.00066662   
2150          0.00066662    0.00066662    0.00066662    0.00066662    0.00066662    0.00066662    0.00066662    0.00066662    0.00066662    0.00066662    0.00066662   
2200          0.00066662    0.00066662    0.00066662    0.00066662    0.00066662    0.00066662    0.00066662    0.00066662    0.00066662    0.00066662    0.00066662   
2250          0.00066662    0.00066662    0.00066662    0.00066662    0.00066662    0.00066662    0.00066662    0.00066662    0.00066662    0.00066662    0.00066662   
2300          0.00066662    0.00066662    0.00066662    0.00066662    0.00066662    0.00066662    0.00066662    0.00066662    0.00066662    0.00066662    0.00066662   
2350          0.00066662    0.00066662    0.00066662    0.00066662    0.00066662    0.00066662    0.00066662    0.00066662    0.00066662    0.00066662    0.00066662   
2400          0.00066662    0.00066662    0.00066662    0.00066662    0.00066662    0.00066662    0.00066662    0.00066662    0.00066662    0.00066662    0.00066662   
2450          0.00066662    0.00066662    0.00066662    0.00066662    0.00066662    0.00066662    0.00066662    0.00066662    0.00066662    0.00066662    0.00066662   
2500          0.00066662    0.00066662    0.00066662    0.00066662    0.00066662    0.00066662    0.00066662    0.00066662    0.00066662    0.00066662    0.00066662   
2550          0.00066662    0.00066662    0.00066662    0.00066662    0.00066662    0.00066662    0.00066662    0.00066662    0.00066662    0.00066662    0.00066662   
2600          0.00066662    0.00066662    0.00066662    0.00066662    0.00066662    0.00066662    0.00066662    0.00066662    0.00066662    0.00066662    0.00066662   
2650          0.00066662    0.00066662    0.00066662    0.00066662    0.00066662    0.00066662    0.00066662    0.00066662    0.00066662    0.00066662    0.00066662   
2700          0.00066662    0.00066662    0.00066662    0.00066662    0.00066662    0.00066662    0.00066662    0.00066662    0.00066662    0.00066662    0.00066662   
2750          0.00066662    0.00066662    0.00066662    0.00066662    0.00066662    0.00066662    0.00066662    0.00066662    0.00066662    0.00066662    0.00066662   
2800          0.00066662    0.00066662    0.00066662    0.00066662    0.00066662    0.00066662    0.00066662    0.00066662    0.00066662    0.00066662    0.00066662   
2850          0.00066662    0.00066662    0.00066662    0.00066662    0.00066662    0.00066662    0.00066662    0.00066662    0.00066662    0.00066662    0.00066662   
2900          0.00066662    0.00066662    0.00066662    0.00066662    0.00066662    0.00066662    0.00066662    0.00066662    0.00066662    0.00066662    0.00066662   
2950          0.00066662    0.00066662    0.00066662    0.00066662    0.00066662    0.00066662    0.00066662    0.00066662    0.00066662    0.00066662    0.00066662   
3000          0.00066662    0.00066662    0.00066662    0.00066662    0.00066662    0.00066662    0.00066662    0.00066662    0.00066662    0.00066662    0.00066662   
3050          0.00066662    0.00066662    0.00066662    0.00066662    0.00066662    0.00066662    0.00066662    0.00066662    0.00066662    0.00066662    0.00066662   
3100          0.00066662    0.00066662    0.00066662    0.00066662    0.00066662    0.00066662    0.00066662    0.00066662    0.00066662    0.00066662    0.00066662   
3150          0.00066662    0.00066662    0.00066662    0.00066662    0.00066662    0.00066662    0.00066662    0.00066662    0.00066662    0.00066662    0.00066662   
3200          0.00066662    0.00066662    0.00066662    0.00066662    0.00066662    0.00066662    0.00066662    0.00066662    0.00066662    0.00066662    0.00066662   
3250          0.00066662    0.00066662    0.00066662    0.00066662    0.00066662    0.00066662    0.00066662    0.00066662    0.00066662    0.00066662    0.00066662   
3300          0.00066662    0.00066662    0.00066662    0.00066662    0.00066662    0.00066662    0.00066662    0.00066662    0.00066662    0.00066662    0.00066662   
3350          0.00066662    0.00066662    0.00066662    0.00066662    0.00066662    0.00066662    0.00066662    0.00066662    0.00066662    0.00066662    0.00066662   
3400          0.00066662    0.00066662    0.00066662    0.00066662    0.00066662    0.00066662    0.00066662    0.00066662    0.00066662    0.00066662    0.00066662   
3450          0.00066662    0.00066662    0.00066662    0.00066662    0.00066662    0.00066662    0.00066662    0.00066662    0.00066662    0.00066662    0.00066662   
3500          0.00066662    0.00066662    0.00066662    0.00066662    0.00066662    0.00066662    0.00066662    0.00066662    0.00066662    0.00066662    0.00066662   
3550          0.00066662    0.00066662    0.00066662    0.00066662    0.00066662    0.00066662    0.00066662    0.00066662    0.00066662    0.00066662    0.00066662   
3600          0.00066662    0.00066662    0.00066662    0.00066662    0.00066662    0.00066662    0.00066662    0.00066662    0.00066662    0.00066662    0.00066662   
3650          0.00066662    0.00066662    0.00066662    0.00066662    0.00066662    0.00066662    0.00066662    0.00066662    0.00066662    0.00066662    0.00066662   
3700          0.00066662    0.00066662    0.00066662    0.00066662    0.00066662    0.00066662    0.00066662    0.00066662    0.00066662    0.00066662    0.00066662   
3750          0.00066662    0.00066662    0.00066662    0.00066662    0.00066662    0.00066662    0.00066662    0.00066662    0.00066662    0.00066662    0.00066662   
3800          0.00066662    0.00066662    0.00066662    0.00066662    0.00066662    0.00066662    0.00066662    0.00066662    0.00066662    0.00066662    0.00066662   
3850          0.00066662    0.00066662    0.00066662    0.00066662    0.00066662    0.00066662    0.00066662    0.00066662    0.00066662    0.00066662    0.00066662   
3900          0.00066662    0.00066662    0.00066662    0.00066662    0.00066662    0.00066662    0.00066662    0.00066662    0.00066662    0.00066662    0.00066662   
3950          0.00066662    0.00066662    0.00066662    0.00066662    0.00066662    0.00066662    0.00066662    0.00066662    0.00066662    0.00066662    0.00066662   
4000          0.00066662    0.00066662    0.00066662    0.00066662    0.00066662    0.00066662    0.00066662    0.00066662    0.00066662    0.00066662    0.00066662   
4050          0.00066662    0.00066662    0.00066662    0.00066662    0.00066662    0.00066662    0.00066662    0.00066662    0.00066662    0.00066662    0.00066662   
4100          0.00066662    0.00066662    0.00066662    0.00066662    0.00066662    0.00066662    0.00066662    0.00066662    0.00066662    0.00066662    0.00066662   
4150          0.00066662    0.00066662    0.00066662    0.00066662    0.00066662    0.00066662    0.00066662    0.00066662    0.00066662    0.00066662    0.00066662   
4200          0.00066662    0.00066662    0.00066662    0.00066662    0.00066662    0.00066662    0.00066662    0.00066662    0.00066662    0.00066662    0.00066662   
4250          0.00066662    0.00066662    0.00066662    0.00066662    0.00066662    0.00066662    0.00066662    0.00066662    0.00066662    0.00066662    0.00066662   
4300          0.00066662    0.00066662    0.00066662    0.00066662    0.00066662    0.00066662    0.00066662    0.00066662    0.00066662    0.00066662    0.00066662   
4350          0.00066662    0.00066662    0.00066662    0.00066662    0.00066662    0.00066662    0.00066662    0.00066662    0.00066662    0.00066662    0.00066662   
4400          0.00066662    0.00066662    0.00066662    0.00066662    0.00066662    0.00066662    0.00066662    0.00066662    0.00066662    0.00066662    0.00066662   
4450          0.00066662    0.00066662    0.00066662    0.00066662    0.00066662    0.00066662    0.00066662    0.00066662    0.00066662    0.00066662    0.00066662   
4500          0.00066662    0.00066662    0.00066662    0.00066662    0.00066662    0.00066662    0.00066662    0.00066662    0.00066662    0.00066662    0.00066662   
4550          0.00066662    0.00066662    0.00066662    0.00066662    0.00066662    0.00066662    0.00066662    0.00066662    0.00066662    0.00066662    0.00066662   
4600          0.00066662    0.00066662    0.00066662    0.00066662    0.00066662    0.00066662    0.00066662    0.00066662    0.00066662    0.00066662    0.00066662   
4650          0.00066662    0.00066662    0.00066662    0.00066662    0.00066662    0.00066662    0.00066662    0.00066662    0.00066662    0.00066662    0.00066662   
4700          0.00066662    0.00066662    0.00066662    0.00066662    0.00066662    0.00066662    0.00066662    0.00066662    0.00066662    0.00066662    0.00066662   
4750          0.00066662    0.00066662    0.00066662    0.00066662    0.00066662    0.00066662    0.00066662    0.00066662    0.00066662    0.00066662    0.00066662   
4800          0.00066662    0.00066662    0.00066662    0.00066662    0.00066662    0.00066662    0.00066662    0.00066662    0.00066662    0.00066662    0.00066662   
4850          0.00066662    0.00066662    0.00066662    0.00066662    0.00066662    0.00066662    0.00066662    0.00066662    0.00066662    0.00066662    0.00066662   
4900          0.00066662    0.00066662    0.00066662    0.00066662    0.00066662    0.00066662    0.00066662    0.00066662    0.00066662    0.00066662    0.00066662   
4950          0.00066662    0.00066662    0.00066662    0.00066662    0.00066662    0.00066662    0.00066662    0.00066662    0.00066662    0.00066662    0.00066662   
5000          0.00066662    0.00066662    0.00066662    0.00066662    0.00066662    0.00066662    0.00066662    0.00066662    0.00066662    0.00066662    0.00066662   
