# Probe 0 (0.0015 0.0015 0)
# Probe 1 (0.0015 0.0015 0.002)
# Probe 2 (0.0015 0.0015 0.004)
# Probe 3 (0.0015 0.0015 0.006)
# Probe 4 (0.0015 0.0015 0.008)
# Probe 5 (0.0015 0.0015 0.01)
# Probe 6 (0.0015 0.0015 0.012)
# Probe 7 (0.0015 0.0015 0.014)
# Probe 8 (0.0015 0.0015 0.016)
# Probe 9 (0.0015 0.0015 0.018)
# Probe 10 (0.0015 0.0015 0.02)
# Time        0             1             2             3             4             5             6             7             8             9             10           
50            (442493 -73973.4 -9.38127e+06) (442493 -73973.4 -9.38127e+06) (442493 -73973.4 -9.38127e+06) (442493 -73973.4 -9.38127e+06) (442493 -73973.4 -9.38127e+06) (442493 -73973.4 -9.38127e+06) (442493 -73973.4 -9.38127e+06) (442493 -73973.4 -9.38127e+06) (442493 -73973.4 -9.38127e+06) (442493 -73973.4 -9.38127e+06) (442493 -73973.4 -9.38127e+06)
100           (787580 -190326 -9.38127e+06) (787580 -190326 -9.38127e+06) (787580 -190326 -9.38127e+06) (787580 -190326 -9.38127e+06) (787580 -190326 -9.38127e+06) (787580 -190326 -9.38127e+06) (787580 -190326 -9.38127e+06) (787580 -190326 -9.38127e+06) (787580 -190326 -9.38127e+06) (787580 -190326 -9.38127e+06) (787580 -190326 -9.38127e+06)
150           (905257 -196296 -9.38127e+06) (905257 -196296 -9.38127e+06) (905257 -196296 -9.38127e+06) (905257 -196296 -9.38127e+06) (905257 -196296 -9.38127e+06) (905257 -196296 -9.38127e+06) (905257 -196296 -9.38127e+06) (905257 -196296 -9.38127e+06) (905257 -196296 -9.38127e+06) (905257 -196296 -9.38127e+06) (905257 -196296 -9.38127e+06)
200           (935630 -202783 -9.38127e+06) (935630 -202783 -9.38127e+06) (935630 -202783 -9.38127e+06) (935630 -202783 -9.38127e+06) (935630 -202783 -9.38127e+06) (935630 -202783 -9.38127e+06) (935630 -202783 -9.38127e+06) (935630 -202783 -9.38127e+06) (935630 -202783 -9.38127e+06) (935630 -202783 -9.38127e+06) (935630 -202783 -9.38127e+06)
250           (942119 -206514 -9.38127e+06) (942119 -206514 -9.38127e+06) (942119 -206514 -9.38127e+06) (942119 -206514 -9.38127e+06) (942119 -206514 -9.38127e+06) (942119 -206514 -9.38127e+06) (942119 -206514 -9.38127e+06) (942119 -206514 -9.38127e+06) (942119 -206514 -9.38127e+06) (942119 -206514 -9.38127e+06) (942119 -206514 -9.38127e+06)
300           (943459 -207792 -9.38127e+06) (943459 -207792 -9.38127e+06) (943459 -207792 -9.38127e+06) (943459 -207792 -9.38127e+06) (943459 -207792 -9.38127e+06) (943459 -207792 -9.38127e+06) (943459 -207792 -9.38127e+06) (943459 -207792 -9.38127e+06) (943459 -207792 -9.38127e+06) (943459 -207792 -9.38127e+06) (943459 -207792 -9.38127e+06)
350           (943723 -208177 -9.38127e+06) (943723 -208177 -9.38127e+06) (943723 -208177 -9.38127e+06) (943723 -208177 -9.38127e+06) (943723 -208177 -9.38127e+06) (943723 -208177 -9.38127e+06) (943723 -208177 -9.38127e+06) (943723 -208177 -9.38127e+06) (943723 -208177 -9.38127e+06) (943723 -208177 -9.38127e+06) (943723 -208177 -9.38127e+06)
400           (943772 -208289 -9.38127e+06) (943772 -208289 -9.38127e+06) (943772 -208289 -9.38127e+06) (943772 -208289 -9.38127e+06) (943772 -208289 -9.38127e+06) (943772 -208289 -9.38127e+06) (943772 -208289 -9.38127e+06) (943772 -208289 -9.38127e+06) (943772 -208289 -9.38127e+06) (943772 -208289 -9.38127e+06) (943772 -208289 -9.38127e+06)
450           (943781 -208328 -9.38127e+06) (943781 -208328 -9.38127e+06) (943781 -208328 -9.38127e+06) (943781 -208328 -9.38127e+06) (943781 -208328 -9.38127e+06) (943781 -208328 -9.38127e+06) (943781 -208328 -9.38127e+06) (943781 -208328 -9.38127e+06) (943781 -208328 -9.38127e+06) (943781 -208328 -9.38127e+06) (943781 -208328 -9.38127e+06)
500           (943782 -208338 -9.38127e+06) (943782 -208338 -9.38127e+06) (943782 -208338 -9.38127e+06) (943782 -208338 -9.38127e+06) (943782 -208338 -9.38127e+06) (943782 -208338 -9.38127e+06) (943782 -208338 -9.38127e+06) (943782 -208338 -9.38127e+06) (943782 -208338 -9.38127e+06) (943782 -208338 -9.38127e+06) (943782 -208338 -9.38127e+06)
550           (943780 -208345 -9.38127e+06) (943780 -208345 -9.38127e+06) (943780 -208345 -9.38127e+06) (943780 -208345 -9.38127e+06) (943780 -208345 -9.38127e+06) (943780 -208345 -9.38127e+06) (943780 -208345 -9.38127e+06) (943780 -208345 -9.38127e+06) (943780 -208345 -9.38127e+06) (943780 -208345 -9.38127e+06) (943780 -208345 -9.38127e+06)
600           (943784 -208345 -9.38127e+06) (943784 -208345 -9.38127e+06) (943784 -208345 -9.38127e+06) (943784 -208345 -9.38127e+06) (943784 -208345 -9.38127e+06) (943784 -208345 -9.38127e+06) (943784 -208345 -9.38127e+06) (943784 -208345 -9.38127e+06) (943784 -208345 -9.38127e+06) (943784 -208345 -9.38127e+06) (943784 -208345 -9.38127e+06)
650           (943784 -208345 -9.38127e+06) (943784 -208345 -9.38127e+06) (943784 -208345 -9.38127e+06) (943784 -208345 -9.38127e+06) (943784 -208345 -9.38127e+06) (943784 -208345 -9.38127e+06) (943784 -208345 -9.38127e+06) (943784 -208345 -9.38127e+06) (943784 -208345 -9.38127e+06) (943784 -208345 -9.38127e+06) (943784 -208345 -9.38127e+06)
700           (943784 -208345 -9.38127e+06) (943784 -208345 -9.38127e+06) (943784 -208345 -9.38127e+06) (943784 -208345 -9.38127e+06) (943784 -208345 -9.38127e+06) (943784 -208345 -9.38127e+06) (943784 -208345 -9.38127e+06) (943784 -208345 -9.38127e+06) (943784 -208345 -9.38127e+06) (943784 -208345 -9.38127e+06) (943784 -208345 -9.38127e+06)
750           (943784 -208345 -9.38127e+06) (943784 -208345 -9.38127e+06) (943784 -208345 -9.38127e+06) (943784 -208345 -9.38127e+06) (943784 -208345 -9.38127e+06) (943784 -208345 -9.38127e+06) (943784 -208345 -9.38127e+06) (943784 -208345 -9.38127e+06) (943784 -208345 -9.38127e+06) (943784 -208345 -9.38127e+06) (943784 -208345 -9.38127e+06)
800           (943784 -208345 -9.38127e+06) (943784 -208345 -9.38127e+06) (943784 -208345 -9.38127e+06) (943784 -208345 -9.38127e+06) (943784 -208345 -9.38127e+06) (943784 -208345 -9.38127e+06) (943784 -208345 -9.38127e+06) (943784 -208345 -9.38127e+06) (943784 -208345 -9.38127e+06) (943784 -208345 -9.38127e+06) (943784 -208345 -9.38127e+06)
850           (943784 -208345 -9.38127e+06) (943784 -208345 -9.38127e+06) (943784 -208345 -9.38127e+06) (943784 -208345 -9.38127e+06) (943784 -208345 -9.38127e+06) (943784 -208345 -9.38127e+06) (943784 -208345 -9.38127e+06) (943784 -208345 -9.38127e+06) (943784 -208345 -9.38127e+06) (943784 -208345 -9.38127e+06) (943784 -208345 -9.38127e+06)
900           (943784 -208345 -9.38127e+06) (943784 -208345 -9.38127e+06) (943784 -208345 -9.38127e+06) (943784 -208345 -9.38127e+06) (943784 -208345 -9.38127e+06) (943784 -208345 -9.38127e+06) (943784 -208345 -9.38127e+06) (943784 -208345 -9.38127e+06) (943784 -208345 -9.38127e+06) (943784 -208345 -9.38127e+06) (943784 -208345 -9.38127e+06)
950           (943784 -208345 -9.38127e+06) (943784 -208345 -9.38127e+06) (943784 -208345 -9.38127e+06) (943784 -208345 -9.38127e+06) (943784 -208345 -9.38127e+06) (943784 -208345 -9.38127e+06) (943784 -208345 -9.38127e+06) (943784 -208345 -9.38127e+06) (943784 -208345 -9.38127e+06) (943784 -208345 -9.38127e+06) (943784 -208345 -9.38127e+06)
1000          (943784 -208345 -9.38127e+06) (943784 -208345 -9.38127e+06) (943784 -208345 -9.38127e+06) (943784 -208345 -9.38127e+06) (943784 -208345 -9.38127e+06) (943784 -208345 -9.38127e+06) (943784 -208345 -9.38127e+06) (943784 -208345 -9.38127e+06) (943784 -208345 -9.38127e+06) (943784 -208345 -9.38127e+06) (943784 -208345 -9.38127e+06)
1050          (943784 -208345 -9.38127e+06) (943784 -208345 -9.38127e+06) (943784 -208345 -9.38127e+06) (943784 -208345 -9.38127e+06) (943784 -208345 -9.38127e+06) (943784 -208345 -9.38127e+06) (943784 -208345 -9.38127e+06) (943784 -208345 -9.38127e+06) (943784 -208345 -9.38127e+06) (943784 -208345 -9.38127e+06) (943784 -208345 -9.38127e+06)
1100          (943784 -208345 -9.38127e+06) (943784 -208345 -9.38127e+06) (943784 -208345 -9.38127e+06) (943784 -208345 -9.38127e+06) (943784 -208345 -9.38127e+06) (943784 -208345 -9.38127e+06) (943784 -208345 -9.38127e+06) (943784 -208345 -9.38127e+06) (943784 -208345 -9.38127e+06) (943784 -208345 -9.38127e+06) (943784 -208345 -9.38127e+06)
1150          (943784 -208345 -9.38127e+06) (943784 -208345 -9.38127e+06) (943784 -208345 -9.38127e+06) (943784 -208345 -9.38127e+06) (943784 -208345 -9.38127e+06) (943784 -208345 -9.38127e+06) (943784 -208345 -9.38127e+06) (943784 -208345 -9.38127e+06) (943784 -208345 -9.38127e+06) (943784 -208345 -9.38127e+06) (943784 -208345 -9.38127e+06)
1200          (943784 -208345 -9.38127e+06) (943784 -208345 -9.38127e+06) (943784 -208345 -9.38127e+06) (943784 -208345 -9.38127e+06) (943784 -208345 -9.38127e+06) (943784 -208345 -9.38127e+06) (943784 -208345 -9.38127e+06) (943784 -208345 -9.38127e+06) (943784 -208345 -9.38127e+06) (943784 -208345 -9.38127e+06) (943784 -208345 -9.38127e+06)
1250          (943784 -208345 -9.38127e+06) (943784 -208345 -9.38127e+06) (943784 -208345 -9.38127e+06) (943784 -208345 -9.38127e+06) (943784 -208345 -9.38127e+06) (943784 -208345 -9.38127e+06) (943784 -208345 -9.38127e+06) (943784 -208345 -9.38127e+06) (943784 -208345 -9.38127e+06) (943784 -208345 -9.38127e+06) (943784 -208345 -9.38127e+06)
1300          (943784 -208345 -9.38127e+06) (943784 -208345 -9.38127e+06) (943784 -208345 -9.38127e+06) (943784 -208345 -9.38127e+06) (943784 -208345 -9.38127e+06) (943784 -208345 -9.38127e+06) (943784 -208345 -9.38127e+06) (943784 -208345 -9.38127e+06) (943784 -208345 -9.38127e+06) (943784 -208345 -9.38127e+06) (943784 -208345 -9.38127e+06)
1350          (943784 -208345 -9.38127e+06) (943784 -208345 -9.38127e+06) (943784 -208345 -9.38127e+06) (943784 -208345 -9.38127e+06) (943784 -208345 -9.38127e+06) (943784 -208345 -9.38127e+06) (943784 -208345 -9.38127e+06) (943784 -208345 -9.38127e+06) (943784 -208345 -9.38127e+06) (943784 -208345 -9.38127e+06) (943784 -208345 -9.38127e+06)
1400          (943784 -208345 -9.38127e+06) (943784 -208345 -9.38127e+06) (943784 -208345 -9.38127e+06) (943784 -208345 -9.38127e+06) (943784 -208345 -9.38127e+06) (943784 -208345 -9.38127e+06) (943784 -208345 -9.38127e+06) (943784 -208345 -9.38127e+06) (943784 -208345 -9.38127e+06) (943784 -208345 -9.38127e+06) (943784 -208345 -9.38127e+06)
1450          (943784 -208345 -9.38127e+06) (943784 -208345 -9.38127e+06) (943784 -208345 -9.38127e+06) (943784 -208345 -9.38127e+06) (943784 -208345 -9.38127e+06) (943784 -208345 -9.38127e+06) (943784 -208345 -9.38127e+06) (943784 -208345 -9.38127e+06) (943784 -208345 -9.38127e+06) (943784 -208345 -9.38127e+06) (943784 -208345 -9.38127e+06)
1500          (943784 -208345 -9.38127e+06) (943784 -208345 -9.38127e+06) (943784 -208345 -9.38127e+06) (943784 -208345 -9.38127e+06) (943784 -208345 -9.38127e+06) (943784 -208345 -9.38127e+06) (943784 -208345 -9.38127e+06) (943784 -208345 -9.38127e+06) (943784 -208345 -9.38127e+06) (943784 -208345 -9.38127e+06) (943784 -208345 -9.38127e+06)
1550          (943784 -208345 -9.38127e+06) (943784 -208345 -9.38127e+06) (943784 -208345 -9.38127e+06) (943784 -208345 -9.38127e+06) (943784 -208345 -9.38127e+06) (943784 -208345 -9.38127e+06) (943784 -208345 -9.38127e+06) (943784 -208345 -9.38127e+06) (943784 -208345 -9.38127e+06) (943784 -208345 -9.38127e+06) (943784 -208345 -9.38127e+06)
1600          (943784 -208345 -9.38127e+06) (943784 -208345 -9.38127e+06) (943784 -208345 -9.38127e+06) (943784 -208345 -9.38127e+06) (943784 -208345 -9.38127e+06) (943784 -208345 -9.38127e+06) (943784 -208345 -9.38127e+06) (943784 -208345 -9.38127e+06) (943784 -208345 -9.38127e+06) (943784 -208345 -9.38127e+06) (943784 -208345 -9.38127e+06)
1650          (943784 -208345 -9.38127e+06) (943784 -208345 -9.38127e+06) (943784 -208345 -9.38127e+06) (943784 -208345 -9.38127e+06) (943784 -208345 -9.38127e+06) (943784 -208345 -9.38127e+06) (943784 -208345 -9.38127e+06) (943784 -208345 -9.38127e+06) (943784 -208345 -9.38127e+06) (943784 -208345 -9.38127e+06) (943784 -208345 -9.38127e+06)
1700          (943784 -208345 -9.38127e+06) (943784 -208345 -9.38127e+06) (943784 -208345 -9.38127e+06) (943784 -208345 -9.38127e+06) (943784 -208345 -9.38127e+06) (943784 -208345 -9.38127e+06) (943784 -208345 -9.38127e+06) (943784 -208345 -9.38127e+06) (943784 -208345 -9.38127e+06) (943784 -208345 -9.38127e+06) (943784 -208345 -9.38127e+06)
1750          (943784 -208345 -9.38127e+06) (943784 -208345 -9.38127e+06) (943784 -208345 -9.38127e+06) (943784 -208345 -9.38127e+06) (943784 -208345 -9.38127e+06) (943784 -208345 -9.38127e+06) (943784 -208345 -9.38127e+06) (943784 -208345 -9.38127e+06) (943784 -208345 -9.38127e+06) (943784 -208345 -9.38127e+06) (943784 -208345 -9.38127e+06)
1800          (943784 -208345 -9.38127e+06) (943784 -208345 -9.38127e+06) (943784 -208345 -9.38127e+06) (943784 -208345 -9.38127e+06) (943784 -208345 -9.38127e+06) (943784 -208345 -9.38127e+06) (943784 -208345 -9.38127e+06) (943784 -208345 -9.38127e+06) (943784 -208345 -9.38127e+06) (943784 -208345 -9.38127e+06) (943784 -208345 -9.38127e+06)
1850          (943784 -208345 -9.38127e+06) (943784 -208345 -9.38127e+06) (943784 -208345 -9.38127e+06) (943784 -208345 -9.38127e+06) (943784 -208345 -9.38127e+06) (943784 -208345 -9.38127e+06) (943784 -208345 -9.38127e+06) (943784 -208345 -9.38127e+06) (943784 -208345 -9.38127e+06) (943784 -208345 -9.38127e+06) (943784 -208345 -9.38127e+06)
1900          (943784 -208345 -9.38127e+06) (943784 -208345 -9.38127e+06) (943784 -208345 -9.38127e+06) (943784 -208345 -9.38127e+06) (943784 -208345 -9.38127e+06) (943784 -208345 -9.38127e+06) (943784 -208345 -9.38127e+06) (943784 -208345 -9.38127e+06) (943784 -208345 -9.38127e+06) (943784 -208345 -9.38127e+06) (943784 -208345 -9.38127e+06)
1950          (943784 -208345 -9.38127e+06) (943784 -208345 -9.38127e+06) (943784 -208345 -9.38127e+06) (943784 -208345 -9.38127e+06) (943784 -208345 -9.38127e+06) (943784 -208345 -9.38127e+06) (943784 -208345 -9.38127e+06) (943784 -208345 -9.38127e+06) (943784 -208345 -9.38127e+06) (943784 -208345 -9.38127e+06) (943784 -208345 -9.38127e+06)
2000          (943784 -208345 -9.38127e+06) (943784 -208345 -9.38127e+06) (943784 -208345 -9.38127e+06) (943784 -208345 -9.38127e+06) (943784 -208345 -9.38127e+06) (943784 -208345 -9.38127e+06) (943784 -208345 -9.38127e+06) (943784 -208345 -9.38127e+06) (943784 -208345 -9.38127e+06) (943784 -208345 -9.38127e+06) (943784 -208345 -9.38127e+06)
2050          (943784 -208345 -9.38127e+06) (943784 -208345 -9.38127e+06) (943784 -208345 -9.38127e+06) (943784 -208345 -9.38127e+06) (943784 -208345 -9.38127e+06) (943784 -208345 -9.38127e+06) (943784 -208345 -9.38127e+06) (943784 -208345 -9.38127e+06) (943784 -208345 -9.38127e+06) (943784 -208345 -9.38127e+06) (943784 -208345 -9.38127e+06)
2100          (943784 -208345 -9.38127e+06) (943784 -208345 -9.38127e+06) (943784 -208345 -9.38127e+06) (943784 -208345 -9.38127e+06) (943784 -208345 -9.38127e+06) (943784 -208345 -9.38127e+06) (943784 -208345 -9.38127e+06) (943784 -208345 -9.38127e+06) (943784 -208345 -9.38127e+06) (943784 -208345 -9.38127e+06) (943784 -208345 -9.38127e+06)
2150          (943784 -208345 -9.38127e+06) (943784 -208345 -9.38127e+06) (943784 -208345 -9.38127e+06) (943784 -208345 -9.38127e+06) (943784 -208345 -9.38127e+06) (943784 -208345 -9.38127e+06) (943784 -208345 -9.38127e+06) (943784 -208345 -9.38127e+06) (943784 -208345 -9.38127e+06) (943784 -208345 -9.38127e+06) (943784 -208345 -9.38127e+06)
2200          (943784 -208345 -9.38127e+06) (943784 -208345 -9.38127e+06) (943784 -208345 -9.38127e+06) (943784 -208345 -9.38127e+06) (943784 -208345 -9.38127e+06) (943784 -208345 -9.38127e+06) (943784 -208345 -9.38127e+06) (943784 -208345 -9.38127e+06) (943784 -208345 -9.38127e+06) (943784 -208345 -9.38127e+06) (943784 -208345 -9.38127e+06)
2250          (943784 -208345 -9.38127e+06) (943784 -208345 -9.38127e+06) (943784 -208345 -9.38127e+06) (943784 -208345 -9.38127e+06) (943784 -208345 -9.38127e+06) (943784 -208345 -9.38127e+06) (943784 -208345 -9.38127e+06) (943784 -208345 -9.38127e+06) (943784 -208345 -9.38127e+06) (943784 -208345 -9.38127e+06) (943784 -208345 -9.38127e+06)
2300          (943784 -208345 -9.38127e+06) (943784 -208345 -9.38127e+06) (943784 -208345 -9.38127e+06) (943784 -208345 -9.38127e+06) (943784 -208345 -9.38127e+06) (943784 -208345 -9.38127e+06) (943784 -208345 -9.38127e+06) (943784 -208345 -9.38127e+06) (943784 -208345 -9.38127e+06) (943784 -208345 -9.38127e+06) (943784 -208345 -9.38127e+06)
2350          (943784 -208345 -9.38127e+06) (943784 -208345 -9.38127e+06) (943784 -208345 -9.38127e+06) (943784 -208345 -9.38127e+06) (943784 -208345 -9.38127e+06) (943784 -208345 -9.38127e+06) (943784 -208345 -9.38127e+06) (943784 -208345 -9.38127e+06) (943784 -208345 -9.38127e+06) (943784 -208345 -9.38127e+06) (943784 -208345 -9.38127e+06)
2400          (943784 -208345 -9.38127e+06) (943784 -208345 -9.38127e+06) (943784 -208345 -9.38127e+06) (943784 -208345 -9.38127e+06) (943784 -208345 -9.38127e+06) (943784 -208345 -9.38127e+06) (943784 -208345 -9.38127e+06) (943784 -208345 -9.38127e+06) (943784 -208345 -9.38127e+06) (943784 -208345 -9.38127e+06) (943784 -208345 -9.38127e+06)
2450          (943784 -208345 -9.38127e+06) (943784 -208345 -9.38127e+06) (943784 -208345 -9.38127e+06) (943784 -208345 -9.38127e+06) (943784 -208345 -9.38127e+06) (943784 -208345 -9.38127e+06) (943784 -208345 -9.38127e+06) (943784 -208345 -9.38127e+06) (943784 -208345 -9.38127e+06) (943784 -208345 -9.38127e+06) (943784 -208345 -9.38127e+06)
2500          (943784 -208345 -9.38127e+06) (943784 -208345 -9.38127e+06) (943784 -208345 -9.38127e+06) (943784 -208345 -9.38127e+06) (943784 -208345 -9.38127e+06) (943784 -208345 -9.38127e+06) (943784 -208345 -9.38127e+06) (943784 -208345 -9.38127e+06) (943784 -208345 -9.38127e+06) (943784 -208345 -9.38127e+06) (943784 -208345 -9.38127e+06)
2550          (943784 -208345 -9.38127e+06) (943784 -208345 -9.38127e+06) (943784 -208345 -9.38127e+06) (943784 -208345 -9.38127e+06) (943784 -208345 -9.38127e+06) (943784 -208345 -9.38127e+06) (943784 -208345 -9.38127e+06) (943784 -208345 -9.38127e+06) (943784 -208345 -9.38127e+06) (943784 -208345 -9.38127e+06) (943784 -208345 -9.38127e+06)
2600          (943784 -208345 -9.38127e+06) (943784 -208345 -9.38127e+06) (943784 -208345 -9.38127e+06) (943784 -208345 -9.38127e+06) (943784 -208345 -9.38127e+06) (943784 -208345 -9.38127e+06) (943784 -208345 -9.38127e+06) (943784 -208345 -9.38127e+06) (943784 -208345 -9.38127e+06) (943784 -208345 -9.38127e+06) (943784 -208345 -9.38127e+06)
2650          (943784 -208345 -9.38127e+06) (943784 -208345 -9.38127e+06) (943784 -208345 -9.38127e+06) (943784 -208345 -9.38127e+06) (943784 -208345 -9.38127e+06) (943784 -208345 -9.38127e+06) (943784 -208345 -9.38127e+06) (943784 -208345 -9.38127e+06) (943784 -208345 -9.38127e+06) (943784 -208345 -9.38127e+06) (943784 -208345 -9.38127e+06)
2700          (943784 -208345 -9.38127e+06) (943784 -208345 -9.38127e+06) (943784 -208345 -9.38127e+06) (943784 -208345 -9.38127e+06) (943784 -208345 -9.38127e+06) (943784 -208345 -9.38127e+06) (943784 -208345 -9.38127e+06) (943784 -208345 -9.38127e+06) (943784 -208345 -9.38127e+06) (943784 -208345 -9.38127e+06) (943784 -208345 -9.38127e+06)
2750          (943784 -208345 -9.38127e+06) (943784 -208345 -9.38127e+06) (943784 -208345 -9.38127e+06) (943784 -208345 -9.38127e+06) (943784 -208345 -9.38127e+06) (943784 -208345 -9.38127e+06) (943784 -208345 -9.38127e+06) (943784 -208345 -9.38127e+06) (943784 -208345 -9.38127e+06) (943784 -208345 -9.38127e+06) (943784 -208345 -9.38127e+06)
2800          (943784 -208345 -9.38127e+06) (943784 -208345 -9.38127e+06) (943784 -208345 -9.38127e+06) (943784 -208345 -9.38127e+06) (943784 -208345 -9.38127e+06) (943784 -208345 -9.38127e+06) (943784 -208345 -9.38127e+06) (943784 -208345 -9.38127e+06) (943784 -208345 -9.38127e+06) (943784 -208345 -9.38127e+06) (943784 -208345 -9.38127e+06)
2850          (943784 -208345 -9.38127e+06) (943784 -208345 -9.38127e+06) (943784 -208345 -9.38127e+06) (943784 -208345 -9.38127e+06) (943784 -208345 -9.38127e+06) (943784 -208345 -9.38127e+06) (943784 -208345 -9.38127e+06) (943784 -208345 -9.38127e+06) (943784 -208345 -9.38127e+06) (943784 -208345 -9.38127e+06) (943784 -208345 -9.38127e+06)
2900          (943784 -208345 -9.38127e+06) (943784 -208345 -9.38127e+06) (943784 -208345 -9.38127e+06) (943784 -208345 -9.38127e+06) (943784 -208345 -9.38127e+06) (943784 -208345 -9.38127e+06) (943784 -208345 -9.38127e+06) (943784 -208345 -9.38127e+06) (943784 -208345 -9.38127e+06) (943784 -208345 -9.38127e+06) (943784 -208345 -9.38127e+06)
2950          (943784 -208345 -9.38127e+06) (943784 -208345 -9.38127e+06) (943784 -208345 -9.38127e+06) (943784 -208345 -9.38127e+06) (943784 -208345 -9.38127e+06) (943784 -208345 -9.38127e+06) (943784 -208345 -9.38127e+06) (943784 -208345 -9.38127e+06) (943784 -208345 -9.38127e+06) (943784 -208345 -9.38127e+06) (943784 -208345 -9.38127e+06)
3000          (943784 -208345 -9.38127e+06) (943784 -208345 -9.38127e+06) (943784 -208345 -9.38127e+06) (943784 -208345 -9.38127e+06) (943784 -208345 -9.38127e+06) (943784 -208345 -9.38127e+06) (943784 -208345 -9.38127e+06) (943784 -208345 -9.38127e+06) (943784 -208345 -9.38127e+06) (943784 -208345 -9.38127e+06) (943784 -208345 -9.38127e+06)
3050          (943784 -208345 -9.38127e+06) (943784 -208345 -9.38127e+06) (943784 -208345 -9.38127e+06) (943784 -208345 -9.38127e+06) (943784 -208345 -9.38127e+06) (943784 -208345 -9.38127e+06) (943784 -208345 -9.38127e+06) (943784 -208345 -9.38127e+06) (943784 -208345 -9.38127e+06) (943784 -208345 -9.38127e+06) (943784 -208345 -9.38127e+06)
3100          (943784 -208345 -9.38127e+06) (943784 -208345 -9.38127e+06) (943784 -208345 -9.38127e+06) (943784 -208345 -9.38127e+06) (943784 -208345 -9.38127e+06) (943784 -208345 -9.38127e+06) (943784 -208345 -9.38127e+06) (943784 -208345 -9.38127e+06) (943784 -208345 -9.38127e+06) (943784 -208345 -9.38127e+06) (943784 -208345 -9.38127e+06)
3150          (943784 -208345 -9.38127e+06) (943784 -208345 -9.38127e+06) (943784 -208345 -9.38127e+06) (943784 -208345 -9.38127e+06) (943784 -208345 -9.38127e+06) (943784 -208345 -9.38127e+06) (943784 -208345 -9.38127e+06) (943784 -208345 -9.38127e+06) (943784 -208345 -9.38127e+06) (943784 -208345 -9.38127e+06) (943784 -208345 -9.38127e+06)
3200          (943784 -208345 -9.38127e+06) (943784 -208345 -9.38127e+06) (943784 -208345 -9.38127e+06) (943784 -208345 -9.38127e+06) (943784 -208345 -9.38127e+06) (943784 -208345 -9.38127e+06) (943784 -208345 -9.38127e+06) (943784 -208345 -9.38127e+06) (943784 -208345 -9.38127e+06) (943784 -208345 -9.38127e+06) (943784 -208345 -9.38127e+06)
3250          (943784 -208345 -9.38127e+06) (943784 -208345 -9.38127e+06) (943784 -208345 -9.38127e+06) (943784 -208345 -9.38127e+06) (943784 -208345 -9.38127e+06) (943784 -208345 -9.38127e+06) (943784 -208345 -9.38127e+06) (943784 -208345 -9.38127e+06) (943784 -208345 -9.38127e+06) (943784 -208345 -9.38127e+06) (943784 -208345 -9.38127e+06)
3300          (943784 -208345 -9.38127e+06) (943784 -208345 -9.38127e+06) (943784 -208345 -9.38127e+06) (943784 -208345 -9.38127e+06) (943784 -208345 -9.38127e+06) (943784 -208345 -9.38127e+06) (943784 -208345 -9.38127e+06) (943784 -208345 -9.38127e+06) (943784 -208345 -9.38127e+06) (943784 -208345 -9.38127e+06) (943784 -208345 -9.38127e+06)
3350          (943784 -208345 -9.38127e+06) (943784 -208345 -9.38127e+06) (943784 -208345 -9.38127e+06) (943784 -208345 -9.38127e+06) (943784 -208345 -9.38127e+06) (943784 -208345 -9.38127e+06) (943784 -208345 -9.38127e+06) (943784 -208345 -9.38127e+06) (943784 -208345 -9.38127e+06) (943784 -208345 -9.38127e+06) (943784 -208345 -9.38127e+06)
3400          (943784 -208345 -9.38127e+06) (943784 -208345 -9.38127e+06) (943784 -208345 -9.38127e+06) (943784 -208345 -9.38127e+06) (943784 -208345 -9.38127e+06) (943784 -208345 -9.38127e+06) (943784 -208345 -9.38127e+06) (943784 -208345 -9.38127e+06) (943784 -208345 -9.38127e+06) (943784 -208345 -9.38127e+06) (943784 -208345 -9.38127e+06)
3450          (943784 -208345 -9.38127e+06) (943784 -208345 -9.38127e+06) (943784 -208345 -9.38127e+06) (943784 -208345 -9.38127e+06) (943784 -208345 -9.38127e+06) (943784 -208345 -9.38127e+06) (943784 -208345 -9.38127e+06) (943784 -208345 -9.38127e+06) (943784 -208345 -9.38127e+06) (943784 -208345 -9.38127e+06) (943784 -208345 -9.38127e+06)
3500          (943784 -208345 -9.38127e+06) (943784 -208345 -9.38127e+06) (943784 -208345 -9.38127e+06) (943784 -208345 -9.38127e+06) (943784 -208345 -9.38127e+06) (943784 -208345 -9.38127e+06) (943784 -208345 -9.38127e+06) (943784 -208345 -9.38127e+06) (943784 -208345 -9.38127e+06) (943784 -208345 -9.38127e+06) (943784 -208345 -9.38127e+06)
3550          (943784 -208345 -9.38127e+06) (943784 -208345 -9.38127e+06) (943784 -208345 -9.38127e+06) (943784 -208345 -9.38127e+06) (943784 -208345 -9.38127e+06) (943784 -208345 -9.38127e+06) (943784 -208345 -9.38127e+06) (943784 -208345 -9.38127e+06) (943784 -208345 -9.38127e+06) (943784 -208345 -9.38127e+06) (943784 -208345 -9.38127e+06)
3600          (943784 -208345 -9.38127e+06) (943784 -208345 -9.38127e+06) (943784 -208345 -9.38127e+06) (943784 -208345 -9.38127e+06) (943784 -208345 -9.38127e+06) (943784 -208345 -9.38127e+06) (943784 -208345 -9.38127e+06) (943784 -208345 -9.38127e+06) (943784 -208345 -9.38127e+06) (943784 -208345 -9.38127e+06) (943784 -208345 -9.38127e+06)
3650          (943784 -208345 -9.38127e+06) (943784 -208345 -9.38127e+06) (943784 -208345 -9.38127e+06) (943784 -208345 -9.38127e+06) (943784 -208345 -9.38127e+06) (943784 -208345 -9.38127e+06) (943784 -208345 -9.38127e+06) (943784 -208345 -9.38127e+06) (943784 -208345 -9.38127e+06) (943784 -208345 -9.38127e+06) (943784 -208345 -9.38127e+06)
3700          (943784 -208345 -9.38127e+06) (943784 -208345 -9.38127e+06) (943784 -208345 -9.38127e+06) (943784 -208345 -9.38127e+06) (943784 -208345 -9.38127e+06) (943784 -208345 -9.38127e+06) (943784 -208345 -9.38127e+06) (943784 -208345 -9.38127e+06) (943784 -208345 -9.38127e+06) (943784 -208345 -9.38127e+06) (943784 -208345 -9.38127e+06)
3750          (943784 -208345 -9.38127e+06) (943784 -208345 -9.38127e+06) (943784 -208345 -9.38127e+06) (943784 -208345 -9.38127e+06) (943784 -208345 -9.38127e+06) (943784 -208345 -9.38127e+06) (943784 -208345 -9.38127e+06) (943784 -208345 -9.38127e+06) (943784 -208345 -9.38127e+06) (943784 -208345 -9.38127e+06) (943784 -208345 -9.38127e+06)
3800          (943784 -208345 -9.38127e+06) (943784 -208345 -9.38127e+06) (943784 -208345 -9.38127e+06) (943784 -208345 -9.38127e+06) (943784 -208345 -9.38127e+06) (943784 -208345 -9.38127e+06) (943784 -208345 -9.38127e+06) (943784 -208345 -9.38127e+06) (943784 -208345 -9.38127e+06) (943784 -208345 -9.38127e+06) (943784 -208345 -9.38127e+06)
3850          (943784 -208345 -9.38127e+06) (943784 -208345 -9.38127e+06) (943784 -208345 -9.38127e+06) (943784 -208345 -9.38127e+06) (943784 -208345 -9.38127e+06) (943784 -208345 -9.38127e+06) (943784 -208345 -9.38127e+06) (943784 -208345 -9.38127e+06) (943784 -208345 -9.38127e+06) (943784 -208345 -9.38127e+06) (943784 -208345 -9.38127e+06)
3900          (943784 -208345 -9.38127e+06) (943784 -208345 -9.38127e+06) (943784 -208345 -9.38127e+06) (943784 -208345 -9.38127e+06) (943784 -208345 -9.38127e+06) (943784 -208345 -9.38127e+06) (943784 -208345 -9.38127e+06) (943784 -208345 -9.38127e+06) (943784 -208345 -9.38127e+06) (943784 -208345 -9.38127e+06) (943784 -208345 -9.38127e+06)
3950          (943784 -208345 -9.38127e+06) (943784 -208345 -9.38127e+06) (943784 -208345 -9.38127e+06) (943784 -208345 -9.38127e+06) (943784 -208345 -9.38127e+06) (943784 -208345 -9.38127e+06) (943784 -208345 -9.38127e+06) (943784 -208345 -9.38127e+06) (943784 -208345 -9.38127e+06) (943784 -208345 -9.38127e+06) (943784 -208345 -9.38127e+06)
4000          (943784 -208345 -9.38127e+06) (943784 -208345 -9.38127e+06) (943784 -208345 -9.38127e+06) (943784 -208345 -9.38127e+06) (943784 -208345 -9.38127e+06) (943784 -208345 -9.38127e+06) (943784 -208345 -9.38127e+06) (943784 -208345 -9.38127e+06) (943784 -208345 -9.38127e+06) (943784 -208345 -9.38127e+06) (943784 -208345 -9.38127e+06)
4050          (943784 -208345 -9.38127e+06) (943784 -208345 -9.38127e+06) (943784 -208345 -9.38127e+06) (943784 -208345 -9.38127e+06) (943784 -208345 -9.38127e+06) (943784 -208345 -9.38127e+06) (943784 -208345 -9.38127e+06) (943784 -208345 -9.38127e+06) (943784 -208345 -9.38127e+06) (943784 -208345 -9.38127e+06) (943784 -208345 -9.38127e+06)
4100          (943784 -208345 -9.38127e+06) (943784 -208345 -9.38127e+06) (943784 -208345 -9.38127e+06) (943784 -208345 -9.38127e+06) (943784 -208345 -9.38127e+06) (943784 -208345 -9.38127e+06) (943784 -208345 -9.38127e+06) (943784 -208345 -9.38127e+06) (943784 -208345 -9.38127e+06) (943784 -208345 -9.38127e+06) (943784 -208345 -9.38127e+06)
4150          (943784 -208345 -9.38127e+06) (943784 -208345 -9.38127e+06) (943784 -208345 -9.38127e+06) (943784 -208345 -9.38127e+06) (943784 -208345 -9.38127e+06) (943784 -208345 -9.38127e+06) (943784 -208345 -9.38127e+06) (943784 -208345 -9.38127e+06) (943784 -208345 -9.38127e+06) (943784 -208345 -9.38127e+06) (943784 -208345 -9.38127e+06)
4200          (943784 -208345 -9.38127e+06) (943784 -208345 -9.38127e+06) (943784 -208345 -9.38127e+06) (943784 -208345 -9.38127e+06) (943784 -208345 -9.38127e+06) (943784 -208345 -9.38127e+06) (943784 -208345 -9.38127e+06) (943784 -208345 -9.38127e+06) (943784 -208345 -9.38127e+06) (943784 -208345 -9.38127e+06) (943784 -208345 -9.38127e+06)
4250          (943784 -208345 -9.38127e+06) (943784 -208345 -9.38127e+06) (943784 -208345 -9.38127e+06) (943784 -208345 -9.38127e+06) (943784 -208345 -9.38127e+06) (943784 -208345 -9.38127e+06) (943784 -208345 -9.38127e+06) (943784 -208345 -9.38127e+06) (943784 -208345 -9.38127e+06) (943784 -208345 -9.38127e+06) (943784 -208345 -9.38127e+06)