# Probe 0 (0.0015 0.0015 0)
# Probe 1 (0.0015 0.0015 0.002)
# Probe 2 (0.0015 0.0015 0.004)
# Probe 3 (0.0015 0.0015 0.006)
# Probe 4 (0.0015 0.0015 0.008)
# Probe 5 (0.0015 0.0015 0.01)
# Probe 6 (0.0015 0.0015 0.012)
# Probe 7 (0.0015 0.0015 0.014)
# Probe 8 (0.0015 0.0015 0.016)
# Probe 9 (0.0015 0.0015 0.018)
# Probe 10 (0.0015 0.0015 0.02)
# Time        0             1             2             3             4             5             6             7             8             9             10           
50            139102        58170.4       18674.7       7009.77       2973.82       1669.93       1307.12       1331.28       1785.28       3306.03       8378.28      
100           161328        89002         32823.8       12303.6       4772.23       2256.59       1485.85       1435.53       1931.41       3605.7        8673.55      
150           173088        112523        50956.6       20183.2       7611.58       3202.8        1771.6        1582.89       2104.76       3942.79       8997.92      
200           180297        128081        69014.5       30455.2       11746.3       4629.75       2205.45       1788.3        2307.79       4305.06       9322.58      
250           185253        138940        84039.3       42115.2       17346.9       6679.55       2841.9        2072.67       2545.87       4684.09       9630.54      
300           188917        147024        95950.8       53696.1       24341.5       9496.37       3749.57       2463.38       2827.81       5075.91       9915.86      
350           191761        153330        105515        64186.1       32316.7       13192.5       5013.15       2996.14       3166.47       5480.48       10179.2      
400           194053        158427        113381        73342.4       40619.4       17788.5       6729.14       3716.82       3580.1        5901.7        10424.7      
450           195954        162661        119993        81290.7       48672.9       23163.4       8993.1        4680.21       4092.56       6347.49       10659.2      
500           197564        166256        125651        88231.8       56180.6       29062.8       11877.6       5949.02       4735.97       6830.91       10890.7      
550           198953        169361        130570        94351.2       63071.6       35172.5       15404         7589.07       5547.56       7369.06       11128.7      
600           200169        172083        134904        99802.3       69375.2       41229         19514.6       9661.97       6573.9        7985.26       11384.5      
650           201249        174501        138771        104706        75153.1       47072.8       24076.3       12211.3       7866.55       8708.03       11670.6      
700           202218        176674        142257        109158        80471.9       52637.6       28919.2       15249.2       9478.06       9570.55       12000.8      
750           203096        178645        145431        113232        85394.9       57913.1       33888.5       18747.3       11454         10608.4       12390        
800           203901        180450        148344        116992        89979.3       62916.4       38873.6       22634.9       13820.7       11855.2       12852.5      
850           204643        182117        151041        120488        94274.9       67673.2       43805.5       26807.5       16571.4       13335.9       13400        
900           205333        183669        153557        123760        98322.8       72207.2       48639         31144.3       19658.4       15058.7       14038.9      
950           205979        185122        155917        126839        102151        76533.2       53338.7       35529.6       22996.6       17009         14767.5      
1000          206587        186489        158141        129748        105781        80657.1       57870.7       39861         26478.8       19148.1       15576.5      
1050          207161        187780        160242        132500        109221        84576.5       62205         44062         29994.3       21414.9       16446.3      
1100          207704        189001        162229        135101        112474        88285.2       66315.5       48075.6       33445.9       23737.3       17351.6      
1150          208216        190153        164103        137554        115537        91774.4       70181.3       51861.6       36757.4       26041.9       18264        
1200          208698        191237        165865        139856        118408        95036.1       73786.2       55392.3       39873.7       28264.8       19156.6      
1250          209149        192251        167511        142003        121080        98064         77121.2       58652.2       42762.2       30358.1       20006.6      
1300          209568        193194        169040        143994        123550        100855        80182.2       61634.3       45405.2       32290.5       20797.9      
1350          209956        194065        170450        145827        125818        103408        82968.8       64338.1       47796         34046.1       21521.3      
1400          210312        194865        171743        147504        127887        105727        85487.4       66770.9       49939.4       35621.3       22172.8      
1450          210637        195594        172920        149027        129760        107820        87749.8       68945.6       51847.8       37021.3       22752.7      
1500          210931        196254        173985        150402        131446        109697        89768.3       70877.4       53534.8       38256         23264.8      
1550          211196        196849        174942        151636        132955        111370        91560         72584.7       55018.9       39339         23714        
1600          211434        197381        175798        152736        134298        112855        93142.7       74086.8       56319.5       40285         24106        
1650          211645        197855        176559        153713        135487        114166        94535         75403.6       57455         41108.3       24447.1      
1700          211832        198274        177232        154576        136535        115318        95755.4       76554         58443.7       41823.1       24743        
1750          211998        198644        177825        155336        137456        116328        96821.6       77556.4       59302.5       42442.5       24999.1      
1800          212143        198969        178346        156001        138262        117211        97750.7       78427.8       60047.2       42978.3       25220.6      
1850          212270        199254        178801        156583        138965        117980        98558.4       79183.8       60691.9       43441.2       25411.8      
1900          212381        199502        179198        157090        139577        118648        99259.3       79838.6       61249.2       43840.7       25576.7      
1950          212478        199719        179544        157531        140109        119228        99866.7       80405.2       61730.7       44185.3       25718.8      
2000          212561        199906        179844        157914        140570        119730        100392        80894.4       62145.9       44482.3       25841.3      
2050          212634        200069        180104        158245        140969        120164        100845        81316.6       62503.7       44737.9       25946.7      
2100          212697        200210        180329        158531        141314        120539        101237        81680.5       62811.9       44957.9       26037.4      
2150          212752        200332        180523        158779        141612        120863        101574        81994         63077.2       45147.1       26115.3      
2200          212799        200437        180691        158993        141869        121142        101864        82264         63305.4       45309.8       26182.4      
2250          212839        200528        180836        159177        142090        121382        102115        82496.2       63501.7       45449.7       26240        
2300          212874        200606        180961        159335        142281        121589        102330        82695.9       63670.4       45569.8       26289.5      
2350          212904        200673        181068        159472        142445        121767        102515        82867.6       63815.3       45673         26332        
2400          212930        200731        181160        159589        142586        121920        102674        83014.9       63939.6       45761.5       26368.4      
2450          212953        200781        181240        159690        142706        122051        102810        83141.3       64046.3       45837.5       26399.7      
2500          212972        200823        181307        159775        142809        122162        102926        83248.8       64136.9       45902.3       26426.2      
2550          212987        200859        181365        159849        142898        122258        103026        83341.7       64215.6       45958         26449.3      
2600          213001        200890        181414        159911        142973        122339        103111        83420.3       64281.9       46005.3       26468.8      
2650          213013        200916        181456        159964        143037        122409        103183        83487.4       64338.6       46045.9       26485.4      
2700          213023        200939        181491        160010        143091        122468        103245        83544.4       64387.1       46080.2       26499.5      
2750          213032        200959        181523        160050        143139        122520        103299        83594.6       64429.3       46110.1       26511.9      
2800          213039        200975        181549        160083        143179        122563        103344        83636.1       64464.3       46135.3       26522.3      
2850          213046        200989        181572        160113        143215        122602        103384        83673.5       64495.5       46157.4       26531.5      
2900          213051        201002        181591        160137        143243        122633        103417        83703.3       64521.2       46175.5       26538.8      
2950          213056        201012        181608        160158        143269        122661        103445        83730.2       64543.7       46191.6       26545.5      
3000          213060        201021        181622        160176        143291        122685        103470        83753.1       64563.1       46205.3       26551.1      
3050          213063        201028        181634        160191        143309        122705        103491        83772.4       64579.3       46216.9       26556.3      
3100          213066        201034        181644        160204        143324        122721        103507        83787.8       64592.4       46226.4       26559.8      
3150          213068        201041        181654        160216        143339        122737        103525        83803.9       64606.1       46236         26563.9      
3200          213070        201045        181661        160225        143350        122749        103537        83815.2       64615.5       46243         26566.4      
3250          213072        201049        181667        160234        143360        122760        103548        83825.7       64624.5       46249.1       26569.3      
3300          213073        201052        181672        160239        143367        122767        103556        83833         64630.7       46253.6       26571.1      
3350          213075        201055        181676        160245        143374        122775        103564        83839.9       64636.5       46257.9       26572.8      
3400          213076        201057        181680        160250        143380        122782        103571        83847.1       64642.6       46262.3       26574.6      
3450          213077        201059        181683        160254        143385        122787        103576        83851.9       64646.6       46265         26575.8      
3500          213077        201061        181686        160257        143389        122791        103581        83855.9       64650.1       46267.7       26576.8      
3550          213078        201062        181689        160261        143393        122796        103586        83860.6       64654.1       46270.5       26577.9      
3600          213079        201063        181690        160262        143395        122798        103588        83862.6       64655.9       46271.6       26578.7      
3650          213079        201064        181691        160264        143397        122800        103590        83864.6       64657.5       46272.9       26579        
3700          213079        201064        181691        160264        143397        122800        103590        83864.6       64657.5       46272.9       26579        
3750          213079        201064        181691        160264        143397        122800        103590        83864.6       64657.5       46272.9       26579        
3800          213079        201064        181691        160264        143397        122800        103590        83864.6       64657.5       46272.9       26579        
3850          213079        201064        181691        160264        143397        122800        103590        83864.6       64657.5       46272.9       26579        
3900          213079        201064        181691        160264        143397        122800        103590        83864.6       64657.5       46272.9       26579        
3950          213079        201064        181691        160264        143397        122800        103590        83864.6       64657.5       46272.9       26579        
4000          213079        201064        181691        160264        143397        122800        103590        83864.6       64657.5       46272.9       26579        
4050          213079        201064        181691        160264        143397        122800        103590        83864.6       64657.5       46272.9       26579        
4100          213079        201064        181691        160264        143397        122800        103590        83864.6       64657.5       46272.9       26579        
4150          213079        201064        181691        160264        143397        122800        103590        83864.6       64657.5       46272.9       26579        
4200          213079        201064        181691        160264        143397        122800        103590        83864.6       64657.5       46272.9       26579        
4250          213079        201064        181691        160264        143397        122800        103590        83864.6       64657.5       46272.9       26579        
4300          213079        201064        181691        160264        143397        122800        103590        83864.6       64657.5       46272.9       26579        
4350          213079        201064        181691        160264        143397        122800        103590        83864.6       64657.5       46272.9       26579        
4400          213079        201064        181691        160264        143397        122800        103590        83864.6       64657.5       46272.9       26579        
4450          213079        201064        181691        160264        143397        122800        103590        83864.6       64657.5       46272.9       26579        
4500          213079        201064        181691        160264        143397        122800        103590        83864.6       64657.5       46272.9       26579        
4550          213079        201064        181691        160264        143397        122800        103590        83864.6       64657.5       46272.9       26579        
4600          213079        201064        181691        160264        143397        122800        103590        83864.6       64657.5       46272.9       26579        
4650          213079        201064        181691        160264        143397        122800        103590        83864.6       64657.5       46272.9       26579        
4700          213079        201064        181691        160264        143397        122800        103590        83864.6       64657.5       46272.9       26579        
4750          213079        201064        181691        160264        143397        122800        103590        83864.6       64657.5       46272.9       26579        
4800          213079        201064        181691        160264        143397        122800        103590        83864.6       64657.5       46272.9       26579        
4850          213079        201064        181691        160264        143397        122800        103590        83864.6       64657.5       46272.9       26579        
4900          213079        201064        181691        160264        143397        122800        103590        83864.6       64657.5       46272.9       26579        
4950          213079        201064        181691        160264        143397        122800        103590        83864.6       64657.5       46272.9       26579        
5000          213079        201064        181691        160264        143397        122800        103590        83864.6       64657.5       46272.9       26579        
