# Probe 0 (0.0015 0.0015 0)
# Probe 1 (0.0015 0.0015 0.002)
# Probe 2 (0.0015 0.0015 0.004)
# Probe 3 (0.0015 0.0015 0.006)
# Probe 4 (0.0015 0.0015 0.008)
# Probe 5 (0.0015 0.0015 0.01)
# Probe 6 (0.0015 0.0015 0.012)
# Probe 7 (0.0015 0.0015 0.014)
# Probe 8 (0.0015 0.0015 0.016)
# Probe 9 (0.0015 0.0015 0.018)
# Probe 10 (0.0015 0.0015 0.02)
# Time        0             1             2             3             4             5             6             7             8             9             10           
50            (2.61608e+06 -611954 -3.83939e+07) (-1.3731e+06 330321 -3.88662e+07) (-290459 73139.6 -1.18818e+07) (106331 291904 -3.68101e+06) (-81534.3 -61460.8 -1.2876e+06) (-2805.87 -6706.04 -294881) (-2321.17 113.054 -68653.7) (-1611.92 -9815.71 70380.9) (3821.63 -8189.52 445631) (-92813.7 -82665.4 1.71255e+06) (124247 26904.9 3.61602e+06)
100           (2.63127e+06 -475078 -2.7777e+07) (-250976 715771 -4.46896e+07) (-473011 73525.7 -2.00518e+07) (206037 500529 -6.72863e+06) (-153484 -113744 -2.46464e+06) (-8739.94 -8629.92 -602621) (-7092.69 -121.902 -165642) (-2614.25 -8343.86 63789.8) (3984.05 -8798.92 496175) (-96486 -78218.2 1.83557e+06) (127732 32695.5 3.42743e+06)
150           (2.30532e+06 -394518 -2.21896e+07) (554210 954631 -4.11233e+07) (-666571 -129090 -2.73947e+07) (361210 718242 -1.08899e+07) (-260909 -193017 -4.26129e+06) (-17501.4 -11976.2 -1.09278e+06) (-14516.9 -657.002 -329911) (-3701.79 -5854.74 40249) (4105.97 -9383.27 546603) (-100125 -73108 1.96913e+06) (130866 38921.5 3.21718e+06)
200           (2.0635e+06 -350277 -1.87731e+07) (888051 980350 -3.66898e+07) (-755858 -436923 -3.04708e+07) (550053 852941 -1.5331e+07) (-401831 -298978 -6.71976e+06) (-29007.5 -17467.8 -1.81668e+06) (-25331.3 -1711.47 -586855) (-4816.8 -2005.64 -8413.94) (4145.04 -9877.7 591180) (-102980 -67151.3 2.09874e+06) (132178 43855.4 3.00199e+06)
250           (1.89085e+06 -321397 -1.6427e+07) (1.11613e+06 966881 -3.31865e+07) (-761267 -620069 -3.04189e+07) (726420 878289 -1.87121e+07) (-559990 -421419 -9.6826e+06) (-42001.5 -26143.5 -2.82192e+06) (-40261.5 -3652.88 -968459) (-5885.45 3635.51 -92810.2) (4043.86 -10216.1 623621) (-104524 -60295.6 2.2127e+06) (131265 46473 2.7938e+06)
300           (1.76086e+06 -300411 -1.46937e+07) (1.28415e+06 950770 -3.04635e+07) (-747738 -710398 -2.93585e+07) (862721 848365 -2.03635e+07) (-707602 -541924 -1.26845e+07) (-52752.2 -39470.3 -4.1277e+06) (-59719.4 -7123.49 -1.51307e+06) (-6808.28 11550 -225982) (3747.43 -10331.5 636979) (-104489 -52621.6 2.30257e+06) (128559 46853.3 2.59874e+06)
350           (1.65873e+06 -284224 -1.33481e+07) (1.41249e+06 935412 -2.82903e+07) (-733501 -760907 -2.81441e+07) (941232 799155 -2.07379e+07) (-823390 -641642 -1.51118e+07) (-53919.3 -59375.8 -5.68531e+06) (-83255.1 -13194 -2.263e+06) (-7433.53 22207.1 -424014) (3189.62 -10156.8 623052) (-102778 -44309.7 2.36215e+06) (124703 45647.6 2.41826e+06)
400           (1.57557e+06 -271371 -1.2264e+07) (1.51446e+06 921409 -2.65077e+07) (-720123 -793051 -2.699e+07) (974599 742222 -2.05325e+07) (-899526 -709580 -1.66138e+07) (-35041.9 -89434.6 -7.33765e+06) (-108806 -23337.6 -3.25413e+06) (-7469.04 35975.8 -705575) (2313.53 -9615.45 571722) (-99385.1 -35635 2.38624e+06) (120178 43474.6 2.25052e+06)
450           (1.50626e+06 -260716 -1.13655e+07) (1.59819e+06 909002 -2.50107e+07) (-707579 -815471 -2.594e+07) (985496 685377 -2.01209e+07) (-938297 -749717 -1.72864e+07) (12891.3 -135675 -8.83733e+06) (-131725 -39059.8 -4.49787e+06) (-6472.07 52713.6 -1.09011e+06) (1046.15 -8648.98 471139) (-94328.7 -26877.4 2.36978e+06) (115224 40777.1 2.09151e+06)
500           (1.44718e+06 -251734 -1.0604e+07) (1.66855e+06 897745 -2.37308e+07) (-696106 -832552 -2.49945e+07) (986443 632073 -1.96451e+07) (-950085 -773900 -1.74244e+07) (88627.4 -200146 -9.96128e+06) (-144913 -60536.1 -5.95498e+06) (-3664.03 71469.5 -1.59345e+06) (-656.282 -7216.19 307310) (-87520.5 -18300.2 2.3068e+06) (109881 37740 1.93579e+06)
550           (1.39608e+06 -243989 -9.94732e+06) (1.72892e+06 887678 -2.26185e+07) (-685682 -845782 -2.41428e+07) (982405 583214 -1.91566e+07) (-946837 -789757 -1.7274e+07) (177013 -272416 -1.06362e+07) (-141024 -85156.7 -7.51224e+06) (2144.94 89932.6 -2.22615e+06) (-2783.25 -5323.98 65283.7) (-78814.9 -10051.4 2.19078e+06) (104054 34373.5 1.77685e+06)
600           (1.35117e+06 -237220 -9.3722e+06) (1.78153e+06 878570 -2.16385e+07) (-676136 -856396 -2.33715e+07) (975796 538500 -1.86769e+07) (-936254 -800559 -1.69787e+07) (259334 -337484 -1.09386e+07) (-116771 -108215 -9.00277e+06) (12610.6 104170 -2.98193e+06) (-5247.66 -3042.93 -270448) (-67911 -2150.8 2.01305e+06) (97518.8 30578.7 1.60723e+06)
650           (1.31121e+06 -231224 -8.86186e+06) (1.82803e+06 870270 -2.07644e+07) (-667360 -865122 -2.26684e+07) (967814 497451 -1.82147e+07) (-922195 -807994 -1.66126e+07) (326296 -389492 -1.09952e+07) (-76291.2 -125630 -1.02692e+07) (29586.8 109016 -3.83264e+06) (-7855.06 -524.931 -712690) (-54391.2 5574.62 1.76362e+06) (89984 26193.5 1.4185e+06)
700           (1.27526e+06 -225849 -8.40376e+06) (1.86962e+06 862654 -1.99764e+07) (-659252 -872450 -2.20233e+07) (959125 459588 -1.77733e+07) (-906467 -813136 -1.6213e+07) (378315 -430433 -1.09063e+07) (-28726.7 -136258 -1.12284e+07) (54476.8 99624.5 -4.72627e+06) (-10307.5 2024.27 -1.26759e+06) (-37755.5 13527.3 1.43179e+06) (81105.6 21025.7 1.20135e+06)
750           (1.24259e+06 -220982 -7.98838e+06) (1.90723e+06 855619 -1.92592e+07) (-651722 -878710 -2.14276e+07) (950098 424472 -1.73527e+07) (-889943 -816680 -1.5799e+07) (419150 -463861 -1.07322e+07) (17787.7 -141676 -1.18843e+07) (87467.6 73601.1 -5.59538e+06) (-12265.4 4424.41 -1.9294e+06) (-17497 22381.4 1.00792e+06) (70515.7 14884.1 945981)
800           (1.21264e+06 -216533 -7.60825e+06) (1.94155e+06 849074 -1.86007e+07) (-644687 -884133 -2.08737e+07) (940934 391710 -1.69518e+07) (-873062 -819065 -1.53803e+07) (452187 -492309 -1.05059e+07) (59184.9 -144317 -1.22928e+07) (127138 32219.2 -6.37572e+06) (-13479.9 6635.24 -2.67547e+06) (6778.51 33108.1 486407) (57870.1 7616.45 642867)
850           (1.18495e+06 -212432 -7.25744e+06) (1.97315e+06 842945 -1.79911e+07) (-638075 -888887 -2.03552e+07) (931743 360957 -1.65685e+07) (-856070 -820587 -1.49621e+07) (479772 -517283 -1.02465e+07) (94801 -145946 -1.25219e+07) (170627 -20441.2 -7.02683e+06) (-13949.5 8827.74 -3.46534e+06) (35207.3 46929 -130434) (42915.4 -847.22 284149)
900           (1.15916e+06 -208620 -6.93111e+06) (2.00248e+06 837171 -1.74225e+07) (-631824 -893105 -1.9867e+07) (922610 331929 -1.62013e+07) (-839150 -821473 -1.45481e+07) (503509 -539712 -9.96723e+06) (125648 -147329 -1.26308e+07) (214415 -79626.4 -7.5416e+06) (-13952 11304 -4.24809e+06) (67551.8 65125.8 -829226) (25565.5 -10457 -134631)
950           (1.13505e+06 -205035 -6.62579e+06) (2.02992e+06 831709 -1.68891e+07) (-625994 -897065 -1.94054e+07) (913602 304292 -1.58495e+07) (-822446 -821829 -1.41412e+07) (524560 -560361 -9.67851e+06) (153185 -148718 -1.26635e+07) (255862 -141414 -7.93958e+06) (-13934 14297 -4.97698e+06) (103227 88722.8 -1.58615e+06) (6043.67 -20958.9 -612651)
1000          (1.11228e+06 -201687 -6.33848e+06) (2.05566e+06 826528 -1.63864e+07) (-620359 -900533 -1.89677e+07) (904840 278193 -1.55128e+07) (-806193 -821981 -1.37468e+07) (543617 -579372 -9.38972e+06) (178137 -149974 -1.2654e+07) (292962 -203085 -8.2486e+06) (-13918.1 17627.3 -5.62276e+06) (141207 117926 -2.36775e+06) (-15430.3 -32211.1 -1.14398e+06)
1050          (1.09077e+06 -198523 -6.06717e+06) (2.07996e+06 821617 -1.59113e+07) (-615008 -903730 -1.85529e+07) (896425 253456 -1.51922e+07) (-790597 -822003 -1.33685e+07) (561205 -597147 -9.10859e+06) (201152 -151142 -1.26228e+07) (325846 -262754 -8.4965e+06) (-13949.9 21001.2 -6.17798e+06) (180356 152145 -3.14131e+06) (-38184.9 -43790.9 -1.71606e+06)
1100          (1.07044e+06 -195532 -5.81067e+06) (2.10292e+06 816974 -1.54622e+07) (-609950 -906748 -1.81607e+07) (888456 230064 -1.4889e+07) (-775820 -822008 -1.30102e+07) (577643 -613865 -8.84091e+06) (222524 -152257 -1.2584e+07) (355068 -319386 -8.70381e+06) (-13911.5 24085.4 -6.65105e+06) (219499 189921 -3.87955e+06) (-61510.4 -55358.4 -2.31224e+06)
1150          (1.05125e+06 -192709 -5.56861e+06) (2.12461e+06 812605 -1.50387e+07) (-605192 -909622 -1.77915e+07) (881001 208045 -1.46042e+07) (-761986 -822063 -1.26744e+07) (593098 -629608 -8.59053e+06) (242386 -153344 -1.25461e+07) (381276 -372389 -8.88448e+06) (-13738.3 26714.6 -7.05738e+06) (257551 229364 -4.56486e+06) (-84684.5 -66619 -2.91389e+06)
1200          (1.03321e+06 -190051 -5.34077e+06) (2.14504e+06 808526 -1.46406e+07) (-600733 -912302 -1.74459e+07) (874080 187476 -1.43385e+07) (-749187 -822242 -1.23633e+07) (607653 -644411 -8.36042e+06) (260736 -154384 -1.25141e+07) (404996 -421476 -9.04762e+06) (-13459.4 28886.1 -7.41237e+06) (293624 268645 -5.18845e+06) (-107080 -77378.6 -3.5032e+06)
1250          (1.01634e+06 -187562 -5.12757e+06) (2.16417e+06 804725 -1.42686e+07) (-596604 -914943 -1.71242e+07) (867784 168305 -1.40931e+07) (-737465 -822496 -1.20777e+07) (621323 -658267 -8.15086e+06) (277749 -155461 -1.24906e+07) (426519 -466433 -9.19797e+06) (-13086.4 30683 -7.72726e+06) (327155 306245 -5.75117e+06) (-128181 -87410.7 -4.06488e+06)
1300          (1.00067e+06 -185243 -4.9293e+06) (2.18198e+06 801234 -1.3923e+07) (-592731 -917447 -1.68269e+07) (862178 150615 -1.38681e+07) (-726819 -822812 -1.18179e+07) (634155 -671048 -7.96227e+06) (293428 -156521 -1.24765e+07) (445910 -507136 -9.33824e+06) (-12585.9 32175 -8.0102e+06) (357718 341199 -6.25591e+06) (-147729 -96626.6 -4.58814e+06)
1350          (986194 -183101 -4.74598e+06) (2.19848e+06 798016 -1.36043e+07) (-589250 -919835 -1.65542e+07) (857059 134382 -1.3663e+07) (-717254 -823267 -1.15835e+07) (646049 -682994 -7.79465e+06) (307707 -157580 -1.24709e+07) (463662 -543949 -9.47043e+06) (-12214.4 33474.5 -8.26632e+06) (385396 373015 -6.70563e+06) (-165450 -105036 -5.06674e+06)
1400          (972929 -181134 -4.57762e+06) (2.21365e+06 795057 -1.33123e+07) (-586145 -922129 -1.63057e+07) (852451 119576 -1.34777e+07) (-708738 -823814 -1.13738e+07) (656992 -694066 -7.64679e+06) (320655 -158641 -1.2473e+07) (479830 -576929 -9.59464e+06) (-11970.3 34630.7 -8.49838e+06) (410200 401486 -7.1056e+06) (-181295 -112586 -5.49792e+06)
1450          (960775 -179402 -4.42417e+06) (2.22748e+06 792418 -1.30465e+07) (-583220 -924173 -1.60808e+07) (848477 106261 -1.33115e+07) (-701153 -824387 -1.11875e+07) (667081 -703957 -7.51694e+06) (332320 -159613 -1.24819e+07) (494035 -606216 -9.71004e+06) (-11585.7 35606.8 -8.70849e+06) (432154 426679 -7.46081e+06) (-195505 -119385 -5.88174e+06)
1500          (949834 -177766 -4.28499e+06) (2.24006e+06 790042 -1.2806e+07) (-580663 -926131 -1.58786e+07) (844951 94245.9 -1.31631e+07) (-694510 -825008 -1.10231e+07) (676264 -713044 -7.40455e+06) (342796 -160558 -1.2495e+07) (506934 -632058 -9.81726e+06) (-11341.8 36502.5 -8.89794e+06) (451513 448822 -7.77436e+06) (-207967 -125338 -6.22071e+06)
1550          (939989 -176292 -4.15962e+06) (2.2514e+06 787920 -1.25898e+07) (-578384 -927937 -1.56979e+07) (841877 83511.2 -1.30316e+07) (-688698 -825645 -1.08787e+07) (684569 -721229 -7.30734e+06) (352130 -161446 -1.25115e+07) (518409 -654778 -9.91575e+06) (-11138.9 37299.1 -9.06789e+06) (468505 468149 -8.05052e+06) (-218892 -130569 -6.518e+06)
1600          (931245 -174934 -4.04747e+06) (2.2616e+06 786022 -1.23968e+07) (-576446 -929659 -1.55372e+07) (839137 73908.5 -1.29155e+07) (-683664 -826302 -1.07523e+07) (691991 -728688 -7.22311e+06) (360420 -162299 -1.25299e+07) (528734 -674709 -1.00055e+07) (-11063.4 38043.9 -9.21953e+06) (483420 484963 -8.29295e+06) (-228367 -135117 -6.77758e+06)
1650          (923407 -173763 -3.94754e+06) (2.27066e+06 784359 -1.2225e+07) (-574652 -931144 -1.5395e+07) (836832 65481.5 -1.28135e+07) (-679257 -826908 -1.06423e+07) (698657 -735192 -7.15101e+06) (367720 -163049 -1.2549e+07) (537669 -692069 -1.00864e+07) (-10914.1 38665.2 -9.35421e+06) (496368 499522 -8.50518e+06) (-236677 -139108 -7.0033e+06)
1700          (916468 -172724 -3.85898e+06) (2.2787e+06 782895 -1.2073e+07) (-573075 -932482 -1.52698e+07) (834842 58061.3 -1.27242e+07) (-675439 -827483 -1.05467e+07) (704576 -740951 -7.08912e+06) (374133 -163729 -1.25681e+07) (545514 -707178 -1.0159e+07) (-10790.8 39212.9 -9.47321e+06) (507626 512114 -8.6904e+06) (-243890 -142577 -7.19911e+06)
1750          (910352 -171808 -3.78086e+06) (2.28579e+06 781612 -1.19391e+07) (-571694 -933678 -1.516e+07) (833128 51552 -1.26463e+07) (-672138 -828020 -1.04639e+07) (709805 -746028 -7.03605e+06) (379749 -164342 -1.25865e+07) (552378 -720299 -1.02237e+07) (-10689.1 39694.3 -9.57793e+06) (517395 522987 -8.85167e+06) (-250137 -145584 -7.36863e+06)
1800          (904981 -171002 -3.71222e+06) (2.29203e+06 780490 -1.18216e+07) (-570488 -934742 -1.50639e+07) (831652 45860.2 -1.25785e+07) (-669288 -828515 -1.03922e+07) (714406 -750485 -6.99056e+06) (384652 -164889 -1.2604e+07) (558367 -731670 -1.02809e+07) (-10605 40116 -9.66972e+06) (525857 532365 -8.99178e+06) (-255541 -148187 -7.51516e+06)
1850          (900282 -170297 -3.65213e+06) (2.2975e+06 779513 -1.17188e+07) (-569437 -935682 -1.49801e+07) (830382 40897.5 -1.25196e+07) (-666830 -828964 -1.03303e+07) (718439 -754386 -6.95158e+06) (388920 -165375 -1.26201e+07) (563580 -741511 -1.03314e+07) (-10535.3 40484.3 -9.74993e+06) (533177 540447 -9.11328e+06) (-260209 -150437 -7.64168e+06)
1900          (896181 -169681 -3.59966e+06) (2.30227e+06 778663 -1.16291e+07) (-568524 -936510 -1.49071e+07) (829291 36580.8 -1.24685e+07) (-664713 -829369 -1.02768e+07) (721962 -757789 -6.91819e+06) (392628 -165804 -1.26349e+07) (568106 -750016 -1.03757e+07) (-10477.4 40805.1 -9.81981e+06) (539501 547407 -9.21849e+06) (-264237 -152380 -7.7508e+06)
1950          (892592 -169158 -3.55399e+06) (2.30642e+06 777941 -1.15511e+07) (-567682 -937214 -1.48438e+07) (828417 32856.1 -1.24244e+07) (-662863 -829701 -1.02307e+07) (725071 -760668 -6.88952e+06) (395869 -166177 -1.26483e+07) (571937 -757313 -1.04143e+07) (-10379.3 41064.2 -9.88059e+06) (544928 553395 -9.30975e+06) (-267738 -154049 -7.8448e+06)
2000          (889492 -168693 -3.51432e+06) (2.31003e+06 777301 -1.14834e+07) (-566996 -937842 -1.47889e+07) (827608 29613.3 -1.23863e+07) (-661292 -830020 -1.0191e+07) (727736 -763241 -6.86499e+06) (398650 -166500 -1.26602e+07) (575344 -763647 -1.04481e+07) (-10344 41309.1 -9.93326e+06) (549633 558543 -9.38832e+06) (-270732 -155497 -7.9258e+06)
2050          (886808 -168286 -3.4799e+06) (2.31317e+06 776749 -1.14248e+07) (-566407 -938396 -1.47414e+07) (826911 26802.3 -1.23533e+07) (-659942 -830303 -1.01567e+07) (730043 -765480 -6.844e+06) (401052 -166789 -1.26707e+07) (578289 -769109 -1.04774e+07) (-10315.3 41520.8 -9.97888e+06) (553693 562976 -9.45607e+06) (-273305 -156742 -7.99553e+06)
2100          (884484 -167934 -3.45011e+06) (2.31588e+06 776271 -1.13741e+07) (-565899 -938879 -1.47003e+07) (826313 24373.6 -1.23249e+07) (-658783 -830552 -1.01273e+07) (732040 -767418 -6.82601e+06) (403125 -167040 -1.26801e+07) (580832 -773811 -1.05029e+07) (-10291.7 41703.8 -1.00183e+07) (557189 566786 -9.51446e+06) (-275519 -157813 -8.05552e+06)
2150          (882476 -167630 -3.42436e+06) (2.31823e+06 775858 -1.13302e+07) (-565462 -939298 -1.46649e+07) (825799 22277.2 -1.23004e+07) (-657789 -830771 -1.0102e+07) (733767 -769092 -6.81058e+06) (404913 -167259 -1.26883e+07) (583025 -777859 -1.0525e+07) (-10272.3 41861.8 -1.00524e+07) (560197 570061 -9.56475e+06) (-277423 -158734 -8.1071e+06)
2200          (880743 -167368 -3.40212e+06) (2.32026e+06 775502 -1.12923e+07) (-565086 -939663 -1.46344e+07) (825357 20469.1 -1.22793e+07) (-656937 -830964 -1.00802e+07) (735260 -770538 -6.79736e+06) (406454 -167449 -1.26955e+07) (584914 -781342 -1.05441e+07) (-10256.1 41998.1 -1.00818e+07) (562784 572875 -9.60803e+06) (-279060 -159526 -8.15145e+06)
2250          (879249 -167141 -3.38294e+06) (2.32201e+06 775195 -1.12597e+07) (-564762 -939978 -1.46081e+07) (824978 18911.1 -1.22611e+07) (-656205 -831133 -1.00616e+07) (736547 -771785 -6.78601e+06) (407782 -167614 -1.27017e+07) (586542 -784338 -1.05605e+07) (-10242.5 42115.7 -1.01071e+07) (565009 575292 -9.64527e+06) (-280467 -160207 -8.18956e+06)
2300          (877962 -166946 -3.36641e+06) (2.32352e+06 774931 -1.12315e+07) (-564484 -940250 -1.45855e+07) (824652 17569.6 -1.22455e+07) (-655577 -831279 -1.00455e+07) (737657 -772859 -6.77629e+06) (408924 -167756 -1.27072e+07) (587942 -786912 -1.05748e+07) (-10230.9 42216.9 -1.0129e+07) (566921 577368 -9.6773e+06) (-281675 -160793 -8.2223e+06)
2350          (876867 -166758 -3.35218e+06) (2.32483e+06 774713 -1.12074e+07) (-564236 -940481 -1.45659e+07) (824378 16420.3 -1.22322e+07) (-655034 -831402 -1.00317e+07) (738607 -773778 -6.768e+06) (409902 -167875 -1.27119e+07) (589141 -789111 -1.0587e+07) (-10219.7 42304.2 -1.01477e+07) (568560 579143 -9.70484e+06) (-282716 -161296 -8.2504e+06)
2400          (875893 -166632 -3.33994e+06) (2.32593e+06 774511 -1.11866e+07) (-564026 -940677 -1.45491e+07) (824145 15434.8 -1.22207e+07) (-654560 -831500 -1.00198e+07) (739426 -774565 -6.76093e+06) (410745 -167977 -1.27159e+07) (590168 -790999 -1.05976e+07) (-10206.5 42377.9 -1.01638e+07) (569967 580666 -9.7285e+06) (-283608 -161726 -8.2745e+06)
2450          (875097 -166498 -3.32945e+06) (2.32691e+06 774351 -1.11687e+07) (-563859 -940868 -1.45348e+07) (823932 14564.4 -1.22108e+07) (-654165 -831593 -1.00097e+07) (740132 -775267 -6.75478e+06) (411478 -168071 -1.27194e+07) (591068 -792650 -1.06066e+07) (-10203.3 42444 -1.01776e+07) (571192 581982 -9.74876e+06) (-284370 -162099 -8.29519e+06)
2500          (874405 -166393 -3.32047e+06) (2.32774e+06 774226 -1.11538e+07) (-563729 -941037 -1.45226e+07) (823736 13815.7 -1.22025e+07) (-653816 -831670 -1.00007e+07) (740768 -775935 -6.74975e+06) (412111 -168169 -1.27222e+07) (591906 -794096 -1.06149e+07) (-10196.6 42492.5 -1.0189e+07) (572260 583153 -9.76612e+06) (-284991 -162407 -8.31277e+06)
2550          (873789 -166319 -3.31291e+06) (2.3284e+06 774073 -1.11403e+07) (-563578 -941134 -1.45123e+07) (823608 13234.7 -1.2195e+07) (-653536 -831749 -9.99366e+06) (741254 -776328 -6.74496e+06) (412624 -168209 -1.27249e+07) (592463 -795219 -1.06209e+07) (-10187.8 42543.4 -1.01996e+07) (573098 584059 -9.78088e+06) (-285585 -162685 -8.32804e+06)
2600          (873289 -166229 -3.30642e+06) (2.32901e+06 773983 -1.11293e+07) (-563453 -941221 -1.45033e+07) (823480 12719 -1.21889e+07) (-653281 -831801 -9.98719e+06) (741677 -776736 -6.74129e+06) (413048 -168253 -1.27269e+07) (592987 -796224 -1.06266e+07) (-10163.8 42578.3 -1.0208e+07) (573853 584871 -9.7935e+06) (-286074 -162930 -8.3409e+06)
2650          (872872 -166176 -3.30084e+06) (2.32953e+06 773908 -1.11198e+07) (-563374 -941330 -1.44958e+07) (823387 12220.2 -1.21837e+07) (-653083 -831809 -9.98177e+06) (742162 -777143 -6.73798e+06) (413533 -168313 -1.2729e+07) (593532 -797154 -1.06314e+07) (-10196.8 42611.3 -1.02154e+07) (574483 585643 -9.80423e+06) (-286452 -163083 -8.35194e+06)
2700          (872457 -166155 -3.29609e+06) (2.32994e+06 773817 -1.11117e+07) (-563261 -941341 -1.44892e+07) (823296 11889.1 -1.21792e+07) (-652909 -831895 -9.97736e+06) (742409 -777406 -6.73501e+06) (413761 -168324 -1.27309e+07) (593821 -797832 -1.06352e+07) (-10142.5 42645.3 -1.02219e+07) (575013 586211 -9.81318e+06) (-286838 -163289 -8.36123e+06)
2750          (872121 -166118 -3.29195e+06) (2.33032e+06 773751 -1.11045e+07) (-563173 -941389 -1.44837e+07) (823222 11568.6 -1.21752e+07) (-652744 -831937 -9.97342e+06) (742697 -777645 -6.73263e+06) (414041 -168350 -1.27323e+07) (594140 -798459 -1.06388e+07) (-10121.7 42663.5 -1.02275e+07) (575473 586724 -9.82116e+06) (-287156 -163449 -8.36945e+06)
2800          (871868 -166078 -3.28847e+06) (2.33063e+06 773665 -1.10987e+07) (-563209 -941576 -1.4479e+07) (823118 11197.5 -1.21718e+07) (-652629 -831948 -9.97002e+06) (742976 -778001 -6.73051e+06) (414395 -168451 -1.27334e+07) (594633 -799102 -1.0642e+07) (-10219.1 42696.1 -1.02318e+07) (575931 587197 -9.82797e+06) (-287320 -163509 -8.37634e+06)
2850          (871668 -165977 -3.28542e+06) (2.33092e+06 773649 -1.10935e+07) (-563115 -941552 -1.44747e+07) (823064 11014.4 -1.2169e+07) (-652522 -831975 -9.96705e+06) (743082 -778102 -6.72894e+06) (414501 -168425 -1.2734e+07) (594793 -799418 -1.06447e+07) (-10193.1 42722 -1.02357e+07) (576263 587495 -9.83414e+06) (-287584 -163642 -8.38239e+06)
2900          (871486 -165938 -3.28292e+06) (2.33118e+06 773635 -1.10891e+07) (-563028 -941539 -1.44714e+07) (823038 10838.4 -1.21666e+07) (-652431 -832026 -9.96469e+06) (743280 -778241 -6.72731e+06) (414645 -168423 -1.27353e+07) (594915 -799835 -1.06465e+07) (-10142.6 42729.3 -1.02394e+07) (576516 587850 -9.83861e+06) (-287803 -163752 -8.38726e+06)
2950          (871283 -165934 -3.28068e+06) (2.33135e+06 773559 -1.10855e+07) (-563031 -941656 -1.44682e+07) (822971 10626 -1.21645e+07) (-652323 -832039 -9.9625e+06) (743413 -778425 -6.72609e+06) (414840 -168485 -1.27358e+07) (595173 -800236 -1.06486e+07) (-10165.7 42740.5 -1.02422e+07) (576816 588098 -9.84304e+06) (-287938 -163828 -8.39166e+06)
3000          (871138 -165903 -3.2788e+06) (2.33154e+06 773550 -1.10822e+07) (-562960 -941669 -1.44656e+07) (822973 10488.5 -1.21628e+07) (-652238 -832062 -9.96075e+06) (743559 -778500 -6.72493e+06) (414968 -168477 -1.27365e+07) (595280 -800489 -1.06502e+07) (-10102.3 42744 -1.02446e+07) (576996 588326 -9.84687e+06) (-288111 -163907 -8.39536e+06)
3050          (871042 -165878 -3.2772e+06) (2.33171e+06 773509 -1.10795e+07) (-563026 -941736 -1.44637e+07) (822849 10313.9 -1.2161e+07) (-652238 -832091 -9.95924e+06) (743646 -778730 -6.72386e+06) (415075 -168532 -1.27369e+07) (595582 -800825 -1.06519e+07) (-10224.1 42776.4 -1.02465e+07) (577256 588571 -9.84992e+06) (-288142 -163939 -8.39873e+06)
3100          (870968 -165840 -3.27595e+06) (2.33185e+06 773506 -1.10774e+07) (-562985 -941827 -1.44618e+07) (822878 10163.6 -1.216e+07) (-652139 -832082 -9.95788e+06) (743809 -778802 -6.72312e+06) (415254 -168562 -1.27375e+07) (595658 -801087 -1.06527e+07) (-10163 42769.2 -1.02484e+07) (577392 588747 -9.85231e+06) (-288268 -163981 -8.40116e+06)
3150          (870843 -165846 -3.27461e+06) (2.33195e+06 773509 -1.10749e+07) (-562896 -941763 -1.44601e+07) (822902 10087.1 -1.21587e+07) (-652107 -832050 -9.9567e+06) (743961 -778808 -6.72245e+06) (415348 -168549 -1.27381e+07) (595650 -801225 -1.06539e+07) (-10111.6 42757.8 -1.025e+07) (577483 588967 -9.85501e+06) (-288382 -164008 -8.40378e+06)
3200          (870781 -165823 -3.2737e+06) (2.33201e+06 773482 -1.10734e+07) (-562889 -941783 -1.44585e+07) (822891 10023 -1.2158e+07) (-652060 -832072 -9.95574e+06) (743989 -778868 -6.72181e+06) (415412 -168547 -1.27385e+07) (595772 -801286 -1.06543e+07) (-10135.2 42778 -1.02516e+07) (577578 589034 -9.85673e+06) (-288458 -164031 -8.40553e+06)
3250          (870666 -165843 -3.27281e+06) (2.33207e+06 773439 -1.1072e+07) (-562901 -941771 -1.44574e+07) (822807 9996.96 -1.2157e+07) (-652020 -832124 -9.95486e+06) (743951 -778938 -6.72131e+06) (415379 -168542 -1.27384e+07) (595875 -801433 -1.06554e+07) (-10163.1 42800.3 -1.02525e+07) (577727 589084 -9.8585e+06) (-288517 -164116 -8.40737e+06)
3300          (870628 -165845 -3.27223e+06) (2.33213e+06 773454 -1.10709e+07) (-562851 -941770 -1.44567e+07) (822856 9914.13 -1.21565e+07) (-652015 -832070 -9.95433e+06) (744117 -778952 -6.72097e+06) (415511 -168555 -1.27389e+07) (595889 -801542 -1.06559e+07) (-10135 42778.4 -1.02532e+07) (577739 589238 -9.8597e+06) (-288555 -164090 -8.40856e+06)
3350          (870641 -165779 -3.27166e+06) (2.33221e+06 773423 -1.107e+07) (-562909 -941834 -1.44559e+07) (822776 9844.92 -1.21559e+07) (-652010 -832129 -9.95365e+06) (744054 -779095 -6.72057e+06) (415485 -168583 -1.27389e+07) (596039 -801632 -1.06565e+07) (-10196.4 42810.2 -1.0254e+07) (577863 589294 -9.86068e+06) (-288548 -164099 -8.40976e+06)
3400          (870571 -165803 -3.2711e+06) (2.33227e+06 773432 -1.1069e+07) (-562887 -941864 -1.44551e+07) (822816 9795.1 -1.21554e+07) (-651974 -832092 -9.95312e+06) (744157 -779087 -6.72022e+06) (415602 -168594 -1.27391e+07) (596038 -801805 -1.06569e+07) (-10173.2 42803.2 -1.02548e+07) (577924 589420 -9.86174e+06) (-288624 -164110 -8.41092e+06)
3450          (870498 -165817 -3.27071e+06) (2.33226e+06 773400 -1.10684e+07) (-562868 -941816 -1.44545e+07) (822754 9820.95 -1.21549e+07) (-651934 -832141 -9.95271e+06) (744088 -779081 -6.72002e+06) (415524 -168568 -1.2739e+07) (596065 -801771 -1.06572e+07) (-10156.3 42814.2 -1.02553e+07) (577983 589360 -9.8626e+06) (-288677 -164199 -8.41171e+06)
3500          (870484 -165821 -3.27037e+06) (2.3323e+06 773381 -1.10679e+07) (-562906 -941835 -1.44541e+07) (822725 9763.64 -1.21546e+07) (-651948 -832140 -9.95227e+06) (744110 -779168 -6.71978e+06) (415537 -168577 -1.27392e+07) (596171 -801877 -1.06576e+07) (-10209.3 42836.9 -1.02558e+07) (578020 589448 -9.86292e+06) (-288677 -164174 -8.41243e+06)
3550          (870474 -165793 -3.27001e+06) (2.33234e+06 773422 -1.10672e+07) (-562826 -941810 -1.44536e+07) (822783 9749.3 -1.21543e+07) (-651931 -832106 -9.95205e+06) (744224 -779116 -6.71959e+06) (415639 -168561 -1.27393e+07) (596076 -801912 -1.06578e+07) (-10144.8 42800.2 -1.02562e+07) (578043 589540 -9.86396e+06) (-288720 -164179 -8.41314e+06)
3600          (870454 -165791 -3.26984e+06) (2.33237e+06 773378 -1.1067e+07) (-562878 -941839 -1.44533e+07) (822729 9734.97 -1.21542e+07) (-651916 -832166 -9.95178e+06) (744109 -779172 -6.71934e+06) (415543 -168591 -1.27394e+07) (596178 -801959 -1.06581e+07) (-10203.4 42828.8 -1.02564e+07) (578108 589476 -9.86433e+06) (-288715 -164219 -8.41361e+06)
3650          (870408 -165837 -3.26966e+06) (2.33237e+06 773385 -1.10667e+07) (-562867 -941883 -1.44531e+07) (822751 9684.79 -1.2154e+07) (-651886 -832131 -9.95168e+06) (744208 -779180 -6.71935e+06) (415670 -168587 -1.27394e+07) (596157 -802040 -1.06581e+07) (-10145.4 42809 -1.02567e+07) (578123 589532 -9.86462e+06) (-288759 -164229 -8.41383e+06)
3700          (870408 -165837 -3.26966e+06) (2.33237e+06 773385 -1.10667e+07) (-562867 -941883 -1.44531e+07) (822751 9684.79 -1.2154e+07) (-651886 -832131 -9.95168e+06) (744208 -779180 -6.71935e+06) (415670 -168587 -1.27394e+07) (596157 -802040 -1.06581e+07) (-10145.4 42809 -1.02567e+07) (578123 589532 -9.86462e+06) (-288759 -164229 -8.41383e+06)
3750          (870408 -165837 -3.26966e+06) (2.33237e+06 773385 -1.10667e+07) (-562867 -941883 -1.44531e+07) (822751 9684.79 -1.2154e+07) (-651886 -832131 -9.95168e+06) (744208 -779180 -6.71935e+06) (415670 -168587 -1.27394e+07) (596157 -802040 -1.06581e+07) (-10145.4 42809 -1.02567e+07) (578123 589532 -9.86462e+06) (-288759 -164229 -8.41383e+06)
3800          (870408 -165837 -3.26966e+06) (2.33237e+06 773385 -1.10667e+07) (-562867 -941883 -1.44531e+07) (822751 9684.79 -1.2154e+07) (-651886 -832131 -9.95168e+06) (744208 -779180 -6.71935e+06) (415670 -168587 -1.27394e+07) (596157 -802040 -1.06581e+07) (-10145.4 42809 -1.02567e+07) (578123 589532 -9.86462e+06) (-288759 -164229 -8.41383e+06)
3850          (870408 -165837 -3.26966e+06) (2.33237e+06 773385 -1.10667e+07) (-562867 -941883 -1.44531e+07) (822751 9684.79 -1.2154e+07) (-651886 -832131 -9.95168e+06) (744208 -779180 -6.71935e+06) (415670 -168587 -1.27394e+07) (596157 -802040 -1.06581e+07) (-10145.4 42809 -1.02567e+07) (578123 589532 -9.86462e+06) (-288759 -164229 -8.41383e+06)
3900          (870408 -165837 -3.26966e+06) (2.33237e+06 773385 -1.10667e+07) (-562867 -941883 -1.44531e+07) (822751 9684.79 -1.2154e+07) (-651886 -832131 -9.95168e+06) (744208 -779180 -6.71935e+06) (415670 -168587 -1.27394e+07) (596157 -802040 -1.06581e+07) (-10145.4 42809 -1.02567e+07) (578123 589532 -9.86462e+06) (-288759 -164229 -8.41383e+06)
3950          (870408 -165837 -3.26966e+06) (2.33237e+06 773385 -1.10667e+07) (-562867 -941883 -1.44531e+07) (822751 9684.79 -1.2154e+07) (-651886 -832131 -9.95168e+06) (744208 -779180 -6.71935e+06) (415670 -168587 -1.27394e+07) (596157 -802040 -1.06581e+07) (-10145.4 42809 -1.02567e+07) (578123 589532 -9.86462e+06) (-288759 -164229 -8.41383e+06)
4000          (870408 -165837 -3.26966e+06) (2.33237e+06 773385 -1.10667e+07) (-562867 -941883 -1.44531e+07) (822751 9684.79 -1.2154e+07) (-651886 -832131 -9.95168e+06) (744208 -779180 -6.71935e+06) (415670 -168587 -1.27394e+07) (596157 -802040 -1.06581e+07) (-10145.4 42809 -1.02567e+07) (578123 589532 -9.86462e+06) (-288759 -164229 -8.41383e+06)
4050          (870408 -165837 -3.26966e+06) (2.33237e+06 773385 -1.10667e+07) (-562867 -941883 -1.44531e+07) (822751 9684.79 -1.2154e+07) (-651886 -832131 -9.95168e+06) (744208 -779180 -6.71935e+06) (415670 -168587 -1.27394e+07) (596157 -802040 -1.06581e+07) (-10145.4 42809 -1.02567e+07) (578123 589532 -9.86462e+06) (-288759 -164229 -8.41383e+06)
4100          (870408 -165837 -3.26966e+06) (2.33237e+06 773385 -1.10667e+07) (-562867 -941883 -1.44531e+07) (822751 9684.79 -1.2154e+07) (-651886 -832131 -9.95168e+06) (744208 -779180 -6.71935e+06) (415670 -168587 -1.27394e+07) (596157 -802040 -1.06581e+07) (-10145.4 42809 -1.02567e+07) (578123 589532 -9.86462e+06) (-288759 -164229 -8.41383e+06)
4150          (870408 -165837 -3.26966e+06) (2.33237e+06 773385 -1.10667e+07) (-562867 -941883 -1.44531e+07) (822751 9684.79 -1.2154e+07) (-651886 -832131 -9.95168e+06) (744208 -779180 -6.71935e+06) (415670 -168587 -1.27394e+07) (596157 -802040 -1.06581e+07) (-10145.4 42809 -1.02567e+07) (578123 589532 -9.86462e+06) (-288759 -164229 -8.41383e+06)
4200          (870408 -165837 -3.26966e+06) (2.33237e+06 773385 -1.10667e+07) (-562867 -941883 -1.44531e+07) (822751 9684.79 -1.2154e+07) (-651886 -832131 -9.95168e+06) (744208 -779180 -6.71935e+06) (415670 -168587 -1.27394e+07) (596157 -802040 -1.06581e+07) (-10145.4 42809 -1.02567e+07) (578123 589532 -9.86462e+06) (-288759 -164229 -8.41383e+06)