# Probe 0 (0.0015 0.0015 0)
# Probe 1 (0.0015 0.0015 0.002)
# Probe 2 (0.0015 0.0015 0.004)
# Probe 3 (0.0015 0.0015 0.006)
# Probe 4 (0.0015 0.0015 0.008)
# Probe 5 (0.0015 0.0015 0.01)
# Probe 6 (0.0015 0.0015 0.012)
# Probe 7 (0.0015 0.0015 0.014)
# Probe 8 (0.0015 0.0015 0.016)
# Probe 9 (0.0015 0.0015 0.018)
# Probe 10 (0.0015 0.0015 0.02)
# Time        0             1             2             3             4             5             6             7             8             9             10           
50            (-1343.39 2083.76 35742.9) (581.802 -94.6448 28598.1) (154.556 -678.832 7620.98) (-49.1582 -168.492 1911.83) (64.1924 42.1581 1029.15) (1.8543 3.99264 179.354) (1.12109 0.119456 50.0871) (1.13011 4.79978 -49.6676) (-1.69768 3.91488 -267.387) (105.611 79.9397 -679.981) (-689.454 -31.4701 -2277.75)
100           (-1365.43 1868.99 26098.2) (120.182 -445.392 32788.6) (273.819 -914.468 12962.5) (-94.2785 -287.792 3495.73) (120.553 77.8491 1974.61) (5.04945 6.44789 363.294) (4.22355 0.103457 112.044) (1.56682 3.26235 -45.4522) (-1.74432 4.20785 -297.658) (106.979 70.9856 -731.614) (-712.463 -37.9753 -2159.5)
150           (-1197.89 1594.49 21015) (-205.144 -661.458 30093.7) (469.166 -718.463 18021.4) (-161.964 -411.004 5657.36) (204.899 133.573 3415.32) (9.58529 10.4809 656.307) (9.10959 0.185919 217.138) (2.04422 0.455921 -29.62) (-1.75165 4.48516 -327.844) (108.064 60.9901 -787.863) (-735.706 -44.9842 -2028.03)
200           (-1068.86 1418.47 17904.7) (-362.85 -706.746 26800.8) (625.079 -207.62 20472) (-239.4 -484.853 7961.64) (316.026 211.901 5380.07) (15.136 16.6729 1089.15) (16.2847 0.485375 381.733) (2.53452 -4.09907 3.46449) (-1.69643 4.71333 -354.512) (108.17 49.9364 -843.033) (-751.449 -50.555 -1894.04)
250           (-976.513 1295.69 15768.2) (-480.887 -715.016 24206) (693.779 174.014 20764.6) (-306.866 -494.011 9708.79) (441.819 308.862 7731.96) (20.4837 25.6426 1690.41) (26.2518 1.21916 626.496) (3.00124 -11.0175 61.1192) (-1.54236 4.85761 -373.892) (106.885 38.0225 -892.457) (-756.396 -53.5276 -1764.87)
300           (-906.925 1203.94 14189.5) (-570.685 -715.915 22190.7) (728.37 412.963 20277.2) (-357.081 -470.338 10549.7) (561.108 410.511 10084.8) (22.636 37.7676 2471.85) (39.3124 2.80051 976.34) (3.39313 -21.0136 152.343) (-1.25177 4.88214 -381.814) (104.079 25.5838 -932.693) (-750.989 -53.9796 -1644.1)
350           (-852.222 1132.17 12963.8) (-640.443 -714.236 20583) (752.295 579.544 19628.4) (-384.488 -438.522 10723.8) (657.114 497.342 11945.8) (16.2937 52.8214 3404.79) (55.216 5.96085 1459.04) (3.62921 -34.8669 288.25) (-0.777871 4.75001 -373.356) (99.784 13.007 -961.126) (-737.085 -52.6347 -1532.41)
400           (-807.624 1074.24 11976.4) (-696.5 -711.573 19264.6) (770.339 706.476 18985.8) (-394.002 -406.225 10597.4) (722.618 557.836 13054.1) (-5.42281 70.7023 4396.09) (72.6662 11.7685 2098.81) (3.55487 -53.3384 481.775) (-0.0787284 4.41874 -342.442) (94.1013 0.685999 -975.523) (-716.495 -50.1854 -1428.53)
450           (-770.443 1026.01 11157.8) (-742.885 -708.719 18157.6) (784.246 808.251 18389.9) (-394.812 -376.004 10365.7) (758.285 595.87 13507.5) (-47.9764 92.9688 5298.88) (88.8165 21.4053 2905.04) (2.93884 -76.8144 746.468) (0.896815 3.85378 -281.96) (87.1367 -11.028 -973.682) (-690.203 -47.1292 -1329.94)
500           (-738.74 985.11 10464.2) (-782.084 -705.738 17211.3) (795.48 893.168 17847.3) (-392.008 -348.509 10102.6) (772.014 621.618 13547.7) (-109.358 120.967 5980.58) (99.5411 35.2315 3855.49) (1.38853 -104.997 1093.49) (2.17979 3.02777 -183.52) (78.8971 -21.8263 -953.088) (-658.356 -43.6752 -1233.24)
550           (-711.314 949.696 9865.96) (-815.849 -702.863 16388.9) (804.79 965.26 17355) (-387.544 -323.727 9834.64) (773.304 640.948 13369) (-177.689 151.248 6397.17) (100.926 51.7253 4880.43) (-1.65787 -136.519 1530.54) (3.7543 1.93745 -38.166) (69.2822 -31.6108 -911.041) (-620.421 -39.8359 -1134.4)
600           (-687.211 918.633 9342.04) (-845.381 -700.114 15664.4) (812.659 1027.73 16906.7) (-382.34 -301.279 9572.56) (768.356 656.193 13082.8) (-239.097 177.829 6593.33) (91.4587 67.8891 5873.59) (-6.93543 -168.56 2053.78) (5.54531 0.61086 163.367) (58.0404 -40.3825 -844.055) (-575.037 -35.4998 -1028.79)
650           (-665.759 891.031 8877.12) (-871.561 -697.503 15018.3) (819.433 1082.7 16496.4) (-376.827 -280.817 9320.78) (760.289 668.486 12746) (-287.113 198.232 6643.39) (73.3574 80.9657 6731.08) (-15.1808 -197.095 2644.25) (7.39061 -0.881458 428.685) (44.7643 -48.3862 -748.198) (-520.295 -30.4829 -911.174)
700           (-646.455 866.225 8459.79) (-895.04 -695.03 14435.8) (825.36 1131.72 16118.7) (-371.232 -262.043 9080.76) (750.596 678.601 12387.2) (-322.617 213.367 6606.53) (51.01 89.9682 7394.21) (-26.7842 -217.9 3266.11) (9.04209 -2.43739 761.35) (28.9084 -56.1511 -619.362) (-453.86 -24.566 -775.76)
750           (-628.911 843.709 8081.37) (-916.314 -692.685 13905.7) (830.615 1175.92 15769.1) (-365.672 -244.703 8852.46) (740.022 687.083 12020.6) (-348.943 224.901 6518.35) (28.1566 95.6878 7861.06) (-41.4567 -227.958 3872.42) (10.2086 -3.95857 1157.72) (9.83388 -64.5623 -453.981) (-373.227 -17.5306 -616.445)
800           (-612.826 823.086 7735.07) (-935.768 -690.456 13418.9) (835.328 1216.19 15443.2) (-360.2 -228.58 8635.04) (728.96 694.308 11653.3) (-368.996 234.067 6398.43) (6.7286 99.5932 8165.73) (-58.2397 -226.527 4418.15) (10.6503 -5.40282 1603.98) (-13.1066 -74.915 -250.256) (-276.128 -9.20145 -427.307)
850           (-597.953 804.036 7415.46) (-953.711 -688.329 12968.4) (839.597 1253.2 15137.7) (-354.839 -213.487 8427.42) (717.641 700.551 11288.8) (-384.754 241.626 6258.21) (-12.7551 102.801 8351.85) (-75.8326 -215.151 4874.74) (10.2959 -6.8183 2075.63) (-40.4383 -88.8742 -9.69565) (-161.11 0.502881 -203.463)
900           (-584.097 786.301 7118.17) (-970.393 -686.292 12548.2) (843.504 1287.51 14849.5) (-349.602 -199.274 8228.68) (706.239 706.026 10929.9) (-397.55 248.056 6105.6) (-30.4938 105.8 8458) (-92.9782 -196.663 5236.88) (9.2893 -8.31213 2542.05) (-72.407 -108.23 261.7) (-28.1329 11.5271 57.8419)
950           (-571.153 769.659 6840) (-985.998 -684.337 12153.9) (847.179 1319.67 14576.7) (-344.508 -185.742 8038.37) (694.883 710.83 10578.3) (-408.316 253.745 5946.77) (-46.92 108.736 8512.98) (-108.907 -174.101 5517.85) (7.95149 -9.97181 2975.27) (-108.89 -134.473 553.841) (120.758 23.584 356.056)
1000          (-558.921 754.034 6578.25) (-1000.67 -682.468 11782.4) (850.535 1349.75 14317.6) (-339.59 -173 7856.29) (683.786 715.265 10238.2) (-417.729 258.807 5787.34) (-62.2212 111.515 8538.92) (-123.031 -149.562 5736.79) (6.36553 -11.7048 3358.01) (-149.133 -167.995 853.057) (282.546 36.5082 687.466)
1050          (-547.365 739.27 6331.07) (-1014.53 -680.689 11431.3) (853.682 1378.11 14072.1) (-334.886 -160.931 7682.98) (673.113 719.38 9912.48) (-426.22 263.452 5631.86) (-76.5629 114.146 8549.16) (-135.51 -124.828 5912.95) (4.68723 -13.3923 3686.17) (-192.021 -208.151 1146.43) (451.997 49.8165 1044.2)
1100          (-536.44 725.313 6097.4) (-1027.63 -679.008 11099.4) (856.657 1404.9 13839.9) (-330.433 -149.52 7519.04) (662.996 723.26 9603.92) (-434.081 267.792 5483.76) (-89.996 116.64 8552.77) (-146.598 -100.865 6060.57) (2.95222 -14.9021 3965.11) (-236.111 -253.126 1423.68) (623.555 63.1165 1415.87)
1150          (-526.134 712.144 5876.86) (-1040 -677.43 10786.4) (859.474 1430.2 13621.4) (-326.258 -138.776 7365.04) (653.534 726.952 9314.66) (-441.477 271.885 5345.28) (-102.528 119.005 8555.18) (-156.551 -78.246 6189.36) (1.19792 -16.1774 4204.24) (-279.89 -300.524 1678.67) (791.948 76.0671 1790.86)
1200          (-516.439 699.746 5669.29) (-1051.64 -675.967 10492.2) (862.137 1453.96 13417) (-322.37 -128.748 7221.39) (644.799 730.506 9046.37) (-448.501 275.763 5218.18) (-114.121 121.223 8559.54) (-165.573 -57.2779 6305.69) (-0.51503 -17.2289 4412.91) (-322.041 -348.068 1908.83) (952.794 88.4411 2158.08)
1250          (-507.379 688.157 5475.07) (-1062.54 -674.614 10217.3) (864.656 1476.29 13226.9) (-318.81 -119.382 7088.6) (636.821 733.882 8799.75) (-455.175 279.43 5102.58) (-124.837 123.345 8567.49) (-173.771 -38.1684 6412.85) (-2.1542 -18.1039 4597.92) (-361.572 -393.685 2115.34) (1103.09 99.9788 2508.02)
1300          (-498.955 677.413 5294.43) (-1072.68 -673.407 9961.88) (866.965 1497.09 13051.3) (-315.608 -110.708 6966.85) (629.606 737.085 8575.14) (-461.614 282.843 4998.72) (-134.696 125.348 8579.6) (-181.167 -20.9187 6512.74) (-3.75203 -18.8346 4764.13) (-397.824 -436.074 2299.92) (1241.18 110.578 2833.99)
1350          (-491.181 667.458 5127.42) (-1082.06 -672.282 9726.32) (869.175 1516.33 12890.4) (-312.674 -102.767 6855.85) (623.142 740.127 8372.18) (-467.587 286.087 4906.62) (-143.62 127.218 8595.4) (-187.954 -5.56705 6606.79) (-5.11947 -19.4775 4914.63) (-430.711 -474.822 2463.99) (1365.96 120.245 3132.1)
1400          (-484.059 658.296 4974.04) (-1090.66 -671.237 9510.51) (871.27 1534.05 12743.9) (-310.02 -95.5311 6755.48) (617.408 742.981 8190.24) (-473.091 289.141 4825.58) (-151.654 128.965 8614.32) (-194.148 7.93616 6695.06) (-6.26495 -20.0553 5051.04) (-460.169 -509.58 2609.8) (1477.49 128.923 3400.66)
1450          (-477.515 650.101 4834.25) (-1098.5 -670.343 9314.09) (873.105 1550.16 12611.4) (-307.697 -89.008 6665.42) (612.329 745.655 8028.4) (-478.327 291.873 4754.56) (-158.885 130.555 8635.79) (-199.588 19.9081 6776.98) (-7.40131 -20.5457 5174.61) (-486.223 -540.209 2739.35) (1576.78 136.734 3639.72)
1500          (-471.641 642.544 4707.46) (-1105.63 -669.541 9136.32) (874.834 1564.83 12492.5) (-305.626 -83.1141 6585.03) (607.898 748.127 7885.23) (-483.138 294.438 4693.27) (-165.338 132.021 8658.39) (-204.548 30.2846 6853.04) (-8.3334 -20.9982 5286.08) (-509.188 -567.201 2853.76) (1664.11 143.575 3850.84)
1550          (-466.356 635.741 4593.24) (-1112.05 -668.833 8976.49) (876.407 1578.06 12386.3) (-303.804 -77.8443 6513.72) (604.04 750.399 7759.31) (-487.54 296.774 4640.4) (-171.061 133.351 8681.54) (-208.968 39.2927 6922.83) (-9.14117 -21.4027 5386.13) (-529.308 -590.752 2954.62) (1740.69 149.585 4036)
1600          (-461.674 629.572 4491.07) (-1117.79 -668.191 8833.8) (877.895 1589.98 12291.9) (-302.18 -73.1328 6450.73) (600.71 752.47 7648.87) (-491.455 298.938 4594.7) (-176.103 134.563 8704.51) (-212.956 47.0391 6986.37) (-9.7698 -21.7824 5475.43) (-546.929 -611.311 3043.24) (1807.4 154.811 4197.67)
1650          (-457.465 624.165 4400.03) (-1122.91 -667.649 8706.83) (879.16 1600.53 12208.6) (-300.791 -68.9896 6395.39) (597.808 754.34 7552.59) (-495.061 300.826 4555.68) (-180.547 135.635 8726.61) (-216.407 53.7755 7043.68) (-10.3793 -22.1005 5554.78) (-562.202 -629.026 3120.91) (1865.69 159.396 4338.26)
1700          (-453.739 619.377 4319.36) (-1127.45 -667.177 8594.48) (880.289 1609.9 12135.1) (-299.583 -65.3393 6346.93) (595.303 756.019 7468.83) (-498.289 302.509 4522.27) (-184.439 136.589 8747.5) (-219.439 59.5809 7095.03) (-10.9037 -22.3817 5624.91) (-575.458 -644.339 3188.75) (1916.33 163.381 4460.22)
1750          (-450.455 615.154 4248.19) (-1131.45 -666.766 8495.5) (881.29 1618.16 12070.8) (-298.535 -62.1353 6304.62) (593.145 757.517 7396.12) (-501.159 304.003 4493.68) (-187.837 137.433 8766.92) (-222.095 64.5779 7140.76) (-11.3542 -22.6296 5686.64) (-586.944 -657.555 3247.87) (1960.23 166.836 4565.8)
1800          (-447.572 611.446 4185.66) (-1134.97 -666.41 8408.64) (882.175 1625.43 12014.5) (-297.627 -59.3326 6267.79) (591.288 758.846 7333.14) (-503.697 305.321 4469.22) (-190.796 138.177 8784.71) (-224.415 68.8757 7181.24) (-11.7409 -22.8471 5740.77) (-596.879 -668.949 3299.27) (1998.22 169.826 4657.08)
1850          (-445.049 608.199 4130.91) (-1138.05 -666.102 8332.66) (882.952 1631.79 11965.5) (-296.843 -56.8879 6235.79) (589.691 760.02 7278.66) (-505.932 306.48 4448.29) (-193.367 138.83 8800.82) (-226.435 72.5702 7216.9) (-12.0729 -23.0375 5788.07) (-605.462 -678.764 3343.88) (2031.06 172.411 4735.88)
1900          (-442.847 605.366 4083.12) (-1140.74 -665.836 8266.38) (883.633 1637.35 11922.8) (-296.166 -54.7608 6208.05) (588.318 761.051 7231.6) (-507.891 307.495 4430.39) (-195.597 139.402 8815.29) (-228.19 75.7447 7248.19) (-12.3577 -23.2035 5829.3) (-612.87 -687.214 3382.52) (2059.42 174.643 4803.85)
1950          (-440.915 602.95 4041.51) (-1143.08 -665.627 8208.66) (884.185 1642.19 11885.7) (-295.609 -52.9089 6184.09) (587.121 761.948 7191.03) (-509.686 308.353 4415.03) (-197.554 139.904 8828.21) (-229.677 78.5226 7275.43) (-12.6422 -23.3375 5865.16) (-619.233 -694.435 3416.07) (2083.94 176.561 4862.4)
2000          (-439.25 600.805 4005.37) (-1145.12 -665.427 8158.66) (884.703 1646.39 11853.6) (-295.104 -51.3123 6163.34) (586.106 762.734 7155.97) (-511.171 309.124 4401.92) (-199.222 140.332 8839.58) (-231 80.8593 7299.3) (-12.8481 -23.4645 5896.24) (-624.737 -700.688 3444.95) (2105.03 178.225 4912.86)
2050          (-437.81 598.939 3974.02) (-1146.88 -665.255 8115.32) (885.157 1650.04 11825.9) (-294.668 -49.9278 6145.43) (585.235 763.419 7125.77) (-512.457 309.797 4390.7) (-200.659 140.707 8849.59) (-232.144 82.8635 7320.04) (-13.0237 -23.5744 5923.15) (-629.48 -706.071 3469.86) (2123.18 179.654 4956.29)
2100          (-436.564 597.324 3946.87) (-1148.41 -665.107 8077.82) (885.55 1653.2 11801.9) (-294.292 -48.7314 6129.99) (584.488 764.014 7099.79) (-513.573 310.382 4381.11) (-201.899 141.033 8858.36) (-233.131 84.584 7338.04) (-13.174 -23.6695 5946.43) (-633.563 -710.697 3491.33) (2138.81 180.885 4993.66)
2150          (-435.486 595.929 3923.41) (-1149.73 -664.978 8045.39) (885.892 1655.93 11781.2) (-293.969 -47.6987 6116.67) (583.848 764.531 7077.45) (-514.539 310.887 4372.88) (-202.968 141.315 8866.04) (-233.983 86.0612 7353.62) (-13.3027 -23.7517 5966.54) (-637.074 -714.672 3509.83) (2152.25 181.943 5025.79)
2200          (-434.557 594.726 3903.16) (-1150.87 -664.868 8017.39) (886.189 1658.29 11763.4) (-293.691 -46.808 6105.19) (583.3 764.98 7058.26) (-515.375 311.324 4365.83) (-203.888 141.559 8872.73) (-234.717 87.3296 7367.09) (-13.4129 -23.8226 5983.89) (-640.093 -718.088 3525.75) (2163.81 182.854 5053.42)
2250          (-433.755 593.688 3885.68) (-1151.85 -664.773 7993.24) (886.445 1660.33 11748) (-293.452 -46.0404 6095.3) (582.831 765.368 7041.76) (-516.097 311.701 4359.79) (-204.68 141.769 8878.55) (-235.349 88.4183 7378.72) (-13.5074 -23.8838 5998.85) (-642.688 -721.022 3539.45) (2173.75 183.636 5077.15)
2300          (-433.064 592.794 3870.63) (-1152.7 -664.691 7972.43) (886.667 1662.08 11734.8) (-293.246 -45.3795 6086.8) (582.428 765.703 7027.59) (-516.72 312.027 4354.61) (-205.362 141.951 8883.6) (-235.893 89.3526 7388.76) (-13.5885 -23.9365 6011.73) (-644.918 -723.542 3551.24) (2182.29 184.308 5097.55)
2350          (-432.481 591.986 3857.65) (-1153.43 -664.628 7954.57) (886.851 1663.6 11723.4) (-293.072 -44.8127 6079.54) (582.08 765.99 7015.36) (-517.254 312.305 4350.2) (-205.946 142.105 8887.93) (-236.359 90.1497 7397.41) (-13.6591 -23.9819 6022.8) (-646.828 -725.693 3561.38) (2189.62 184.886 5115.05)
2400          (-431.954 591.355 3846.5) (-1154.05 -664.563 7939.23) (887.009 1664.89 11713.5) (-292.924 -44.3262 6073.31) (581.774 766.231 7004.85) (-517.717 312.543 4346.44) (-206.45 142.237 8891.63) (-236.759 90.8326 7404.87) (-13.7222 -24.0203 6032.3) (-648.467 -727.534 3570.09) (2195.93 185.38 5130.06)
2450          (-431.532 590.768 3836.95) (-1154.6 -664.515 7926.01) (887.156 1666.02 11705.2) (-292.79 -43.8964 6067.91) (581.521 766.441 6995.91) (-518.109 312.759 4343.17) (-206.882 142.353 8894.87) (-237.108 91.428 7411.25) (-13.77 -24.0549 6040.46) (-649.891 -729.142 3577.54) (2201.3 185.809 5142.95)
2500          (-431.164 590.248 3828.75) (-1155.06 -664.478 7914.95) (887.297 1666.96 11698.1) (-292.669 -43.5349 6063.38) (581.295 766.61 6988) (-518.427 312.963 4340.52) (-207.251 142.463 8897.5) (-237.431 91.8827 7417.07) (-13.8099 -24.0815 6047.16) (-651.126 -730.573 3583.91) (2205.83 186.162 5153.9)
2550          (-430.823 589.913 3821.89) (-1155.44 -664.426 7905.02) (887.378 1667.77 11692.1) (-292.585 -43.2413 6059.31) (581.118 766.787 6981.75) (-518.748 313.079 4337.94) (-207.569 142.533 8899.94) (-237.651 92.3714 7421.33) (-13.8552 -24.1064 6053.41) (-652.118 -731.654 3589.36) (2209.88 186.483 5163.41)
2600          (-430.558 589.53 3815.97) (-1155.78 -664.403 7896.89) (887.454 1668.44 11686.9) (-292.504 -42.9912 6056.01) (580.954 766.915 6976.05) (-518.978 313.198 4336) (-207.826 142.597 8901.8) (-237.851 92.7194 7425.38) (-13.8996 -24.1249 6058.4) (-652.99 -732.625 3594) (2213.29 186.763 5171.43)
2650          (-430.334 589.266 3810.89) (-1156.07 -664.388 7889.83) (887.542 1669.07 11682.5) (-292.442 -42.7314 6053.16) (580.83 767 6971.23) (-519.289 313.329 4334.24) (-208.108 142.67 8903.7) (-238.067 93.0853 7428.77) (-13.906 -24.1417 6062.72) (-653.764 -733.597 3597.94) (2216.01 186.94 5178.3)
2700          (-430.098 589.079 3806.57) (-1156.3 -664.357 7883.88) (887.586 1669.52 11678.7) (-292.382 -42.5797 6050.72) (580.721 767.134 6967.32) (-519.416 313.399 4332.65) (-208.255 142.702 8905.37) (-238.174 93.3337 7431.45) (-13.9637 -24.159 6066.58) (-654.375 -734.265 3601.22) (2218.54 187.175 5184.08)
2750          (-429.913 588.884 3802.81) (-1156.52 -664.34 7878.51) (887.628 1669.95 11675.5) (-292.333 -42.4205 6048.55) (580.616 767.227 6963.83) (-519.593 313.469 4331.39) (-208.427 142.743 8906.65) (-238.298 93.5761 7433.94) (-13.9978 -24.1685 6069.88) (-654.917 -734.876 3604.16) (2220.73 187.358 5189.21)
2800          (-429.783 588.679 3799.63) (-1156.68 -664.292 7874.26) (887.744 1670.41 11672.7) (-292.277 -42.2318 6046.74) (580.54 767.268 6960.83) (-519.721 313.595 4330.25) (-208.614 142.824 8907.66) (-238.498 93.78 7436.22) (-13.9429 -24.1858 6072.42) (-655.445 -735.504 3606.67) (2222.29 187.429 5193.49)
2850          (-429.692 588.392 3796.84) (-1156.85 -664.299 7870.38) (887.74 1670.64 11670.1) (-292.243 -42.1471 6045.18) (580.469 767.326 6958.24) (-519.77 313.614 4329.42) (-208.688 142.82 8908.3) (-238.555 93.857 7438.11) (-13.9715 -24.1994 6074.76) (-655.809 -735.823 3608.97) (2224.07 187.582 5197.27)
2900          (-429.591 588.262 3794.58) (-1157.01 -664.313 7867.17) (887.754 1670.91 11668.2) (-292.219 -42.0623 6043.9) (580.418 767.411 6956.11) (-519.91 313.651 4328.55) (-208.786 142.838 8909.45) (-238.598 94.059 7439.42) (-14.022 -24.2026 6076.91) (-656.133 -736.253 3610.58) (2225.35 187.708 5200.3)
2950          (-429.479 588.159 3792.53) (-1157.1 -664.266 7864.46) (887.809 1671.18 11666.3) (-292.183 -41.9612 6042.76) (580.342 767.442 6954.2) (-519.949 313.71 4327.9) (-208.888 142.885 8909.93) (-238.701 94.1743 7440.89) (-14.011 -24.2094 6078.54) (-656.449 -736.553 3612.23) (2226.5 187.795 5203.04)
3000          (-429.401 588.06 3790.81) (-1157.21 -664.281 7862.04) (887.806 1671.39 11664.9) (-292.176 -41.8831 6041.82) (580.29 767.498 6952.65) (-520.075 313.733 4327.28) (-208.977 142.896 8910.56) (-238.744 94.3166 7442) (-14.0686 -24.2103 6080) (-656.679 -736.808 3613.65) (2227.52 187.886 5205.35)
3050          (-429.357 587.92 3789.35) (-1157.28 -664.245 7860.06) (887.899 1671.55 11663.8) (-292.115 -41.8168 6040.82) (580.29 767.513 6951.29) (-520.035 313.805 4326.71) (-209.018 142.931 8911) (-238.859 94.3232 7443.25) (-13.9815 -24.2286 6081.08) (-656.964 -737.175 3614.75) (2228.23 187.923 5207.46)
3100          (-429.321 587.842 3788.22) (-1157.37 -664.259 7858.47) (887.905 1671.79 11662.6) (-292.124 -41.7208 6040.29) (580.224 767.54 6950.11) (-520.19 313.836 4326.32) (-209.128 142.963 8911.48) (-238.894 94.5187 7443.81) (-14.0368 -24.2239 6082.22) (-657.133 -737.367 3615.63) (2228.86 187.971 5208.96)
3150          (-429.245 587.83 3786.99) (-1157.43 -664.28 7856.66) (887.87 1671.87 11661.7) (-292.128 -41.6712 6039.61) (580.211 767.548 6949.03) (-520.338 313.829 4325.97) (-209.196 142.97 8911.99) (-238.884 94.5939 7444.63) (-14.0833 -24.2183 6083.18) (-657.275 -737.589 3616.63) (2229.59 188.003 5210.6)
3200          (-429.213 587.771 3786.17) (-1157.47 -664.266 7855.55) (887.885 1671.98 11660.7) (-292.121 -41.6358 6039.21) (580.176 767.576 6948.22) (-520.357 313.852 4325.61) (-209.233 142.972 8912.34) (-238.938 94.6286 7444.9) (-14.0729 -24.2279 6084.11) (-657.383 -737.677 3617.26) (2230.03 188.029 5211.68)
3250          (-429.146 587.739 3785.36) (-1157.5 -664.232 7854.53) (887.916 1672.02 11660.1) (-292.081 -41.6496 6038.66) (580.147 767.613 6947.46) (-520.26 313.868 4325.34) (-209.211 142.965 8912.32) (-238.978 94.6213 7445.7) (-14.0495 -24.2395 6084.67) (-657.523 -737.77 3617.93) (2230.54 188.125 5212.83)
3300          (-429.123 587.75 3784.83) (-1157.53 -664.258 7853.66) (887.898 1672.1 11659.7) (-292.1 -41.5863 6038.38) (580.152 767.599 6946.95) (-520.429 313.872 4325.17) (-209.296 142.986 8912.72) (-238.983 94.7037 7446.02) (-14.0783 -24.2286 6085.09) (-657.583 -737.935 3618.35) (2230.83 188.098 5213.57)
3350          (-429.147 587.586 3784.31) (-1157.57 -664.23 7853.04) (887.959 1672.19 11659.2) (-292.063 -41.568 6038.05) (580.145 767.63 6946.37) (-520.319 313.927 4324.96) (-209.271 142.999 8912.76) (-239.043 94.6749 7446.46) (-14.0324 -24.2448 6085.55) (-657.705 -738.049 3618.71) (2231 188.107 5214.32)
3400          (-429.1 587.618 3783.8) (-1157.6 -664.239 7852.31) (887.951 1672.25 11658.7) (-292.077 -41.5374 6037.77) (580.12 767.611 6945.89) (-520.395 313.914 4324.77) (-209.335 143.012 8912.94) (-239.034 94.7603 7446.71) (-14.0519 -24.242 6085.98) (-657.769 -738.151 3619.09) (2231.45 188.121 5215.04)
3450          (-429.055 587.62 3783.44) (-1157.6 -664.217 7851.87) (887.946 1672.24 11658.3) (-292.05 -41.5648 6037.55) (580.09 767.652 6945.56) (-520.326 313.909 4324.66) (-209.295 142.993 8912.89) (-239.048 94.729 7446.98) (-14.0626 -24.247 6086.33) (-657.815 -738.1 3619.43) (2231.68 188.22 5215.54)
3500          (-429.046 587.603 3783.14) (-1157.62 -664.204 7851.48) (887.983 1672.28 11658.1) (-292.034 -41.5426 6037.35) (580.099 767.643 6945.16) (-520.307 313.936 4324.54) (-209.296 142.998 8913.09) (-239.084 94.7199 7447.23) (-14.025 -24.2588 6086.57) (-657.87 -738.242 3619.51) (2231.81 188.192 5215.97)
3550          (-429.05 587.571 3782.8) (-1157.65 -664.24 7850.94) (887.936 1672.33 11657.8) (-292.06 -41.5153 6037.19) (580.096 767.644 6944.96) (-520.455 313.923 4324.43) (-209.367 142.998 8913.18) (-239.053 94.8289 7447.36) (-14.08 -24.2396 6086.86) (-657.922 -738.303 3619.91) (2231.96 188.2 5216.42)
3600          (-429.037 587.533 3782.66) (-1157.66 -664.209 7850.78) (887.984 1672.35 11657.7) (-292.034 -41.5308 6037.12) (580.08 767.684 6944.72) (-520.307 313.936 4324.3) (-209.312 143.012 8913.27) (-239.091 94.7683 7447.58) (-14.0311 -24.2545 6086.93) (-657.956 -738.264 3620.05) (2232.16 188.244 5216.72)
3650          (-429.004 587.629 3782.5) (-1157.66 -664.215 7850.58) (887.977 1672.41 11657.6) (-292.045 -41.4883 6037.02) (580.061 767.666 6944.63) (-520.414 313.947 4324.3) (-209.382 143.014 8913.27) (-239.088 94.8717 7447.58) (-14.0777 -24.2442 6087.13) (-657.983 -738.308 3620.16) (2232.21 188.255 5216.85)
3700          (-429.004 587.629 3782.5) (-1157.66 -664.215 7850.58) (887.977 1672.41 11657.6) (-292.045 -41.4883 6037.02) (580.061 767.666 6944.63) (-520.414 313.947 4324.3) (-209.382 143.014 8913.27) (-239.088 94.8717 7447.58) (-14.0777 -24.2442 6087.13) (-657.983 -738.308 3620.16) (2232.21 188.255 5216.85)
3750          (-429.004 587.629 3782.5) (-1157.66 -664.215 7850.58) (887.977 1672.41 11657.6) (-292.045 -41.4883 6037.02) (580.061 767.666 6944.63) (-520.414 313.947 4324.3) (-209.382 143.014 8913.27) (-239.088 94.8717 7447.58) (-14.0777 -24.2442 6087.13) (-657.983 -738.308 3620.16) (2232.21 188.255 5216.85)
3800          (-429.004 587.629 3782.5) (-1157.66 -664.215 7850.58) (887.977 1672.41 11657.6) (-292.045 -41.4883 6037.02) (580.061 767.666 6944.63) (-520.414 313.947 4324.3) (-209.382 143.014 8913.27) (-239.088 94.8717 7447.58) (-14.0777 -24.2442 6087.13) (-657.983 -738.308 3620.16) (2232.21 188.255 5216.85)
3850          (-429.004 587.629 3782.5) (-1157.66 -664.215 7850.58) (887.977 1672.41 11657.6) (-292.045 -41.4883 6037.02) (580.061 767.666 6944.63) (-520.414 313.947 4324.3) (-209.382 143.014 8913.27) (-239.088 94.8717 7447.58) (-14.0777 -24.2442 6087.13) (-657.983 -738.308 3620.16) (2232.21 188.255 5216.85)
3900          (-429.004 587.629 3782.5) (-1157.66 -664.215 7850.58) (887.977 1672.41 11657.6) (-292.045 -41.4883 6037.02) (580.061 767.666 6944.63) (-520.414 313.947 4324.3) (-209.382 143.014 8913.27) (-239.088 94.8717 7447.58) (-14.0777 -24.2442 6087.13) (-657.983 -738.308 3620.16) (2232.21 188.255 5216.85)
3950          (-429.004 587.629 3782.5) (-1157.66 -664.215 7850.58) (887.977 1672.41 11657.6) (-292.045 -41.4883 6037.02) (580.061 767.666 6944.63) (-520.414 313.947 4324.3) (-209.382 143.014 8913.27) (-239.088 94.8717 7447.58) (-14.0777 -24.2442 6087.13) (-657.983 -738.308 3620.16) (2232.21 188.255 5216.85)
4000          (-429.004 587.629 3782.5) (-1157.66 -664.215 7850.58) (887.977 1672.41 11657.6) (-292.045 -41.4883 6037.02) (580.061 767.666 6944.63) (-520.414 313.947 4324.3) (-209.382 143.014 8913.27) (-239.088 94.8717 7447.58) (-14.0777 -24.2442 6087.13) (-657.983 -738.308 3620.16) (2232.21 188.255 5216.85)
4050          (-429.004 587.629 3782.5) (-1157.66 -664.215 7850.58) (887.977 1672.41 11657.6) (-292.045 -41.4883 6037.02) (580.061 767.666 6944.63) (-520.414 313.947 4324.3) (-209.382 143.014 8913.27) (-239.088 94.8717 7447.58) (-14.0777 -24.2442 6087.13) (-657.983 -738.308 3620.16) (2232.21 188.255 5216.85)
4100          (-429.004 587.629 3782.5) (-1157.66 -664.215 7850.58) (887.977 1672.41 11657.6) (-292.045 -41.4883 6037.02) (580.061 767.666 6944.63) (-520.414 313.947 4324.3) (-209.382 143.014 8913.27) (-239.088 94.8717 7447.58) (-14.0777 -24.2442 6087.13) (-657.983 -738.308 3620.16) (2232.21 188.255 5216.85)
4150          (-429.004 587.629 3782.5) (-1157.66 -664.215 7850.58) (887.977 1672.41 11657.6) (-292.045 -41.4883 6037.02) (580.061 767.666 6944.63) (-520.414 313.947 4324.3) (-209.382 143.014 8913.27) (-239.088 94.8717 7447.58) (-14.0777 -24.2442 6087.13) (-657.983 -738.308 3620.16) (2232.21 188.255 5216.85)
4200          (-429.004 587.629 3782.5) (-1157.66 -664.215 7850.58) (887.977 1672.41 11657.6) (-292.045 -41.4883 6037.02) (580.061 767.666 6944.63) (-520.414 313.947 4324.3) (-209.382 143.014 8913.27) (-239.088 94.8717 7447.58) (-14.0777 -24.2442 6087.13) (-657.983 -738.308 3620.16) (2232.21 188.255 5216.85)
4250          (-429.004 587.629 3782.5) (-1157.66 -664.215 7850.58) (887.977 1672.41 11657.6) (-292.045 -41.4883 6037.02) (580.061 767.666 6944.63) (-520.414 313.947 4324.3) (-209.382 143.014 8913.27) (-239.088 94.8717 7447.58) (-14.0777 -24.2442 6087.13) (-657.983 -738.308 3620.16) (2232.21 188.255 5216.85)
4300          (-429.004 587.629 3782.5) (-1157.66 -664.215 7850.58) (887.977 1672.41 11657.6) (-292.045 -41.4883 6037.02) (580.061 767.666 6944.63) (-520.414 313.947 4324.3) (-209.382 143.014 8913.27) (-239.088 94.8717 7447.58) (-14.0777 -24.2442 6087.13) (-657.983 -738.308 3620.16) (2232.21 188.255 5216.85)
4350          (-429.004 587.629 3782.5) (-1157.66 -664.215 7850.58) (887.977 1672.41 11657.6) (-292.045 -41.4883 6037.02) (580.061 767.666 6944.63) (-520.414 313.947 4324.3) (-209.382 143.014 8913.27) (-239.088 94.8717 7447.58) (-14.0777 -24.2442 6087.13) (-657.983 -738.308 3620.16) (2232.21 188.255 5216.85)
4400          (-429.004 587.629 3782.5) (-1157.66 -664.215 7850.58) (887.977 1672.41 11657.6) (-292.045 -41.4883 6037.02) (580.061 767.666 6944.63) (-520.414 313.947 4324.3) (-209.382 143.014 8913.27) (-239.088 94.8717 7447.58) (-14.0777 -24.2442 6087.13) (-657.983 -738.308 3620.16) (2232.21 188.255 5216.85)
4450          (-429.004 587.629 3782.5) (-1157.66 -664.215 7850.58) (887.977 1672.41 11657.6) (-292.045 -41.4883 6037.02) (580.061 767.666 6944.63) (-520.414 313.947 4324.3) (-209.382 143.014 8913.27) (-239.088 94.8717 7447.58) (-14.0777 -24.2442 6087.13) (-657.983 -738.308 3620.16) (2232.21 188.255 5216.85)
4500          (-429.004 587.629 3782.5) (-1157.66 -664.215 7850.58) (887.977 1672.41 11657.6) (-292.045 -41.4883 6037.02) (580.061 767.666 6944.63) (-520.414 313.947 4324.3) (-209.382 143.014 8913.27) (-239.088 94.8717 7447.58) (-14.0777 -24.2442 6087.13) (-657.983 -738.308 3620.16) (2232.21 188.255 5216.85)
4550          (-429.004 587.629 3782.5) (-1157.66 -664.215 7850.58) (887.977 1672.41 11657.6) (-292.045 -41.4883 6037.02) (580.061 767.666 6944.63) (-520.414 313.947 4324.3) (-209.382 143.014 8913.27) (-239.088 94.8717 7447.58) (-14.0777 -24.2442 6087.13) (-657.983 -738.308 3620.16) (2232.21 188.255 5216.85)
4600          (-429.004 587.629 3782.5) (-1157.66 -664.215 7850.58) (887.977 1672.41 11657.6) (-292.045 -41.4883 6037.02) (580.061 767.666 6944.63) (-520.414 313.947 4324.3) (-209.382 143.014 8913.27) (-239.088 94.8717 7447.58) (-14.0777 -24.2442 6087.13) (-657.983 -738.308 3620.16) (2232.21 188.255 5216.85)
4650          (-429.004 587.629 3782.5) (-1157.66 -664.215 7850.58) (887.977 1672.41 11657.6) (-292.045 -41.4883 6037.02) (580.061 767.666 6944.63) (-520.414 313.947 4324.3) (-209.382 143.014 8913.27) (-239.088 94.8717 7447.58) (-14.0777 -24.2442 6087.13) (-657.983 -738.308 3620.16) (2232.21 188.255 5216.85)
4700          (-429.004 587.629 3782.5) (-1157.66 -664.215 7850.58) (887.977 1672.41 11657.6) (-292.045 -41.4883 6037.02) (580.061 767.666 6944.63) (-520.414 313.947 4324.3) (-209.382 143.014 8913.27) (-239.088 94.8717 7447.58) (-14.0777 -24.2442 6087.13) (-657.983 -738.308 3620.16) (2232.21 188.255 5216.85)
4750          (-429.004 587.629 3782.5) (-1157.66 -664.215 7850.58) (887.977 1672.41 11657.6) (-292.045 -41.4883 6037.02) (580.061 767.666 6944.63) (-520.414 313.947 4324.3) (-209.382 143.014 8913.27) (-239.088 94.8717 7447.58) (-14.0777 -24.2442 6087.13) (-657.983 -738.308 3620.16) (2232.21 188.255 5216.85)