# Probe 0 (0.0015 0.0015 0)
# Probe 1 (0.0015 0.0015 0.002)
# Probe 2 (0.0015 0.0015 0.004)
# Probe 3 (0.0015 0.0015 0.006)
# Probe 4 (0.0015 0.0015 0.008)
# Probe 5 (0.0015 0.0015 0.01)
# Probe 6 (0.0015 0.0015 0.012)
# Probe 7 (0.0015 0.0015 0.014)
# Probe 8 (0.0015 0.0015 0.016)
# Probe 9 (0.0015 0.0015 0.018)
# Probe 10 (0.0015 0.0015 0.02)
# Time        0             1             2             3             4             5             6             7             8             9             10           
50            (0.0344285 0.0344285 8043.26) (0.0344285 0.0344285 8043.26) (0.0344285 0.0344285 8043.26) (0.0344285 0.0344285 8043.26) (0.0344285 0.0344285 8043.26) (0.0344285 0.0344285 8043.26) (-0.00719079 -0.00719079 4098.22) (-0.00719079 -0.00719079 4098.22) (-0.00719079 -0.00719079 4098.22) (-0.00719079 -0.00719079 4098.22) (-0.00719079 -0.00719079 4098.22)
100           (0.0133391 0.0133391 7328.34) (0.0133391 0.0133391 7328.34) (0.0133391 0.0133391 7328.34) (0.0133391 0.0133391 7328.34) (0.0133391 0.0133391 7328.34) (0.0133391 0.0133391 7328.34) (0.000750939 0.000750939 5118.62) (0.000750939 0.000750939 5118.62) (0.000750939 0.000750939 5118.62) (0.000750939 0.000750939 5118.62) (0.000750939 0.000750939 5118.62)
150           (0.00370407 0.00370407 6887.66) (0.00370407 0.00370407 6887.66) (0.00370407 0.00370407 6887.66) (0.00370407 0.00370407 6887.66) (0.00370407 0.00370407 6887.66) (0.00370407 0.00370407 6887.66) (0.00145243 0.00145243 5632.9) (0.00145243 0.00145243 5632.9) (0.00145243 0.00145243 5632.9) (0.00145243 0.00145243 5632.9) (0.00145243 0.00145243 5632.9)
200           (-0.00195693 -0.00195693 6628.79) (-0.00195693 -0.00195693 6628.79) (-0.00195693 -0.00195693 6628.79) (-0.00195693 -0.00195693 6628.79) (-0.00195693 -0.00195693 6628.79) (-0.00195693 -0.00195693 6628.79) (-0.00143755 -0.00143755 5899.46) (-0.00143755 -0.00143755 5899.46) (-0.00143755 -0.00143755 5899.46) (-0.00143755 -0.00143755 5899.46) (-0.00143755 -0.00143755 5899.46)
250           (-0.00214712 -0.00214712 6475.54) (-0.00214712 -0.00214712 6475.54) (-0.00214712 -0.00214712 6475.54) (-0.00214712 -0.00214712 6475.54) (-0.00214712 -0.00214712 6475.54) (-0.00214712 -0.00214712 6475.54) (-0.00231525 -0.00231525 6047.5) (-0.00231525 -0.00231525 6047.5) (-0.00231525 -0.00231525 6047.5) (-0.00231525 -0.00231525 6047.5) (-0.00231525 -0.00231525 6047.5)
300           (0.00245316 0.00245316 6384.56) (0.00245316 0.00245316 6384.56) (0.00245316 0.00245316 6384.56) (0.00245316 0.00245316 6384.56) (0.00245316 0.00245316 6384.56) (0.00245316 0.00245316 6384.56) (0.00188405 0.00188405 6133) (0.00188405 0.00188405 6133) (0.00188405 0.00188405 6133) (0.00188405 0.00188405 6133) (0.00188405 0.00188405 6133)
350           (0.00153584 0.00153584 6330.73) (0.00153584 0.00153584 6330.73) (0.00153584 0.00153584 6330.73) (0.00153584 0.00153584 6330.73) (0.00153584 0.00153584 6330.73) (0.00153584 0.00153584 6330.73) (0.00119151 0.00119151 6183.07) (0.00119151 0.00119151 6183.07) (0.00119151 0.00119151 6183.07) (0.00119151 0.00119151 6183.07) (0.00119151 0.00119151 6183.07)
400           (0.000902608 0.000902608 6299) (0.000902608 0.000902608 6299) (0.000902608 0.000902608 6299) (0.000902608 0.000902608 6299) (0.000902608 0.000902608 6299) (0.000902608 0.000902608 6299) (0.000713637 0.000713637 6212.49) (0.000713637 0.000713637 6212.49) (0.000713637 0.000713637 6212.49) (0.000713637 0.000713637 6212.49) (0.000713637 0.000713637 6212.49)
450           (0.00229406 0.00229406 6280.37) (0.00229406 0.00229406 6280.37) (0.00229406 0.00229406 6280.37) (0.00229406 0.00229406 6280.37) (0.00229406 0.00229406 6280.37) (0.00229406 0.00229406 6280.37) (0.0014581 0.0014581 6229.75) (0.0014581 0.0014581 6229.75) (0.0014581 0.0014581 6229.75) (0.0014581 0.0014581 6229.75) (0.0014581 0.0014581 6229.75)
500           (0.00136539 0.00136539 6269.45) (0.00136539 0.00136539 6269.45) (0.00136539 0.00136539 6269.45) (0.00136539 0.00136539 6269.45) (0.00136539 0.00136539 6269.45) (0.00136539 0.00136539 6269.45) (0.000862289 0.000862289 6239.87) (0.000862289 0.000862289 6239.87) (0.000862289 0.000862289 6239.87) (0.000862289 0.000862289 6239.87) (0.000862289 0.000862289 6239.87)
550           (0.000798656 0.000798656 6263.07) (0.000798656 0.000798656 6263.07) (0.000798656 0.000798656 6263.07) (0.000798656 0.000798656 6263.07) (0.000798656 0.000798656 6263.07) (0.000798656 0.000798656 6263.07) (0.000506397 0.000506397 6245.79) (0.000506397 0.000506397 6245.79) (0.000506397 0.000506397 6245.79) (0.000506397 0.000506397 6245.79) (0.000506397 0.000506397 6245.79)
600           (-0.00168608 -0.00168608 6259.34) (-0.00168608 -0.00168608 6259.34) (-0.00168608 -0.00168608 6259.34) (-0.00168608 -0.00168608 6259.34) (-0.00168608 -0.00168608 6259.34) (-0.00168608 -0.00168608 6259.34) (-0.00154062 -0.00154062 6249.25) (-0.00154062 -0.00154062 6249.25) (-0.00154062 -0.00154062 6249.25) (-0.00154062 -0.00154062 6249.25) (-0.00154062 -0.00154062 6249.25)
650           (-0.000456749 -0.000456749 6257.16) (-0.000456749 -0.000456749 6257.16) (-0.000456749 -0.000456749 6257.16) (-0.000456749 -0.000456749 6257.16) (-0.000456749 -0.000456749 6257.16) (-0.000456749 -0.000456749 6257.16) (-0.000462439 -0.000462439 6251.27) (-0.000462439 -0.000462439 6251.27) (-0.000462439 -0.000462439 6251.27) (-0.000462439 -0.000462439 6251.27) (-0.000462439 -0.000462439 6251.27)
700           (-0.00140297 -0.00140297 6255.89) (-0.00140297 -0.00140297 6255.89) (-0.00140297 -0.00140297 6255.89) (-0.00140297 -0.00140297 6255.89) (-0.00140297 -0.00140297 6255.89) (-0.00140297 -0.00140297 6255.89) (-0.00115704 -0.00115704 6252.45) (-0.00115704 -0.00115704 6252.45) (-0.00115704 -0.00115704 6252.45) (-0.00115704 -0.00115704 6252.45) (-0.00115704 -0.00115704 6252.45)
750           (0.000532082 0.000532082 6255.14) (0.000532082 0.000532082 6255.14) (0.000532082 0.000532082 6255.14) (0.000532082 0.000532082 6255.14) (0.000532082 0.000532082 6255.14) (0.000532082 0.000532082 6255.14) (0.000363102 0.000363102 6253.14) (0.000363102 0.000363102 6253.14) (0.000363102 0.000363102 6253.14) (0.000363102 0.000363102 6253.14) (0.000363102 0.000363102 6253.14)
800           (0.000750368 0.000750368 6254.71) (0.000750368 0.000750368 6254.71) (0.000750368 0.000750368 6254.71) (0.000750368 0.000750368 6254.71) (0.000750368 0.000750368 6254.71) (0.000750368 0.000750368 6254.71) (0.000746916 0.000746916 6253.54) (0.000746916 0.000746916 6253.54) (0.000746916 0.000746916 6253.54) (0.000746916 0.000746916 6253.54) (0.000746916 0.000746916 6253.54)
850           (-0.000516184 -0.000516184 6254.5) (-0.000516184 -0.000516184 6254.5) (-0.000516184 -0.000516184 6254.5) (-0.000516184 -0.000516184 6254.5) (-0.000516184 -0.000516184 6254.5) (-0.000516184 -0.000516184 6254.5) (-0.000643786 -0.000643786 6253.74) (-0.000643786 -0.000643786 6253.74) (-0.000643786 -0.000643786 6253.74) (-0.000643786 -0.000643786 6253.74) (-0.000643786 -0.000643786 6253.74)
900           (9.15474e-06 9.15474e-06 6254.38) (9.15474e-06 9.15474e-06 6254.38) (9.15474e-06 9.15474e-06 6254.38) (9.15474e-06 9.15474e-06 6254.38) (9.15474e-06 9.15474e-06 6254.38) (9.15474e-06 9.15474e-06 6254.38) (-0.000184239 -0.000184239 6253.85) (-0.000184239 -0.000184239 6253.85) (-0.000184239 -0.000184239 6253.85) (-0.000184239 -0.000184239 6253.85) (-0.000184239 -0.000184239 6253.85)
950           (0.00045931 0.00045931 6254.31) (0.00045931 0.00045931 6254.31) (0.00045931 0.00045931 6254.31) (0.00045931 0.00045931 6254.31) (0.00045931 0.00045931 6254.31) (0.00045931 0.00045931 6254.31) (0.00054815 0.00054815 6253.91) (0.00054815 0.00054815 6253.91) (0.00054815 0.00054815 6253.91) (0.00054815 0.00054815 6253.91) (0.00054815 0.00054815 6253.91)
1000          (-0.000113098 -0.000113098 6254.26) (-0.000113098 -0.000113098 6254.26) (-0.000113098 -0.000113098 6254.26) (-0.000113098 -0.000113098 6254.26) (-0.000113098 -0.000113098 6254.26) (-0.000113098 -0.000113098 6254.26) (-0.000243865 -0.000243865 6253.96) (-0.000243865 -0.000243865 6253.96) (-0.000243865 -0.000243865 6253.96) (-0.000243865 -0.000243865 6253.96) (-0.000243865 -0.000243865 6253.96)
1050          (-0.000113098 -0.000113098 6254.26) (-0.000113098 -0.000113098 6254.26) (-0.000113098 -0.000113098 6254.26) (-0.000113098 -0.000113098 6254.26) (-0.000113098 -0.000113098 6254.26) (-0.000113098 -0.000113098 6254.26) (-0.000243865 -0.000243865 6253.96) (-0.000243865 -0.000243865 6253.96) (-0.000243865 -0.000243865 6253.96) (-0.000243865 -0.000243865 6253.96) (-0.000243865 -0.000243865 6253.96)
1100          (-0.000113098 -0.000113098 6254.26) (-0.000113098 -0.000113098 6254.26) (-0.000113098 -0.000113098 6254.26) (-0.000113098 -0.000113098 6254.26) (-0.000113098 -0.000113098 6254.26) (-0.000113098 -0.000113098 6254.26) (-0.000243865 -0.000243865 6253.96) (-0.000243865 -0.000243865 6253.96) (-0.000243865 -0.000243865 6253.96) (-0.000243865 -0.000243865 6253.96) (-0.000243865 -0.000243865 6253.96)
1150          (-0.000113098 -0.000113098 6254.26) (-0.000113098 -0.000113098 6254.26) (-0.000113098 -0.000113098 6254.26) (-0.000113098 -0.000113098 6254.26) (-0.000113098 -0.000113098 6254.26) (-0.000113098 -0.000113098 6254.26) (-0.000243865 -0.000243865 6253.96) (-0.000243865 -0.000243865 6253.96) (-0.000243865 -0.000243865 6253.96) (-0.000243865 -0.000243865 6253.96) (-0.000243865 -0.000243865 6253.96)
1200          (-0.000113098 -0.000113098 6254.26) (-0.000113098 -0.000113098 6254.26) (-0.000113098 -0.000113098 6254.26) (-0.000113098 -0.000113098 6254.26) (-0.000113098 -0.000113098 6254.26) (-0.000113098 -0.000113098 6254.26) (-0.000243865 -0.000243865 6253.96) (-0.000243865 -0.000243865 6253.96) (-0.000243865 -0.000243865 6253.96) (-0.000243865 -0.000243865 6253.96) (-0.000243865 -0.000243865 6253.96)
1250          (-0.000113098 -0.000113098 6254.26) (-0.000113098 -0.000113098 6254.26) (-0.000113098 -0.000113098 6254.26) (-0.000113098 -0.000113098 6254.26) (-0.000113098 -0.000113098 6254.26) (-0.000113098 -0.000113098 6254.26) (-0.000243865 -0.000243865 6253.96) (-0.000243865 -0.000243865 6253.96) (-0.000243865 -0.000243865 6253.96) (-0.000243865 -0.000243865 6253.96) (-0.000243865 -0.000243865 6253.96)
1300          (-0.000113098 -0.000113098 6254.26) (-0.000113098 -0.000113098 6254.26) (-0.000113098 -0.000113098 6254.26) (-0.000113098 -0.000113098 6254.26) (-0.000113098 -0.000113098 6254.26) (-0.000113098 -0.000113098 6254.26) (-0.000243865 -0.000243865 6253.96) (-0.000243865 -0.000243865 6253.96) (-0.000243865 -0.000243865 6253.96) (-0.000243865 -0.000243865 6253.96) (-0.000243865 -0.000243865 6253.96)
1350          (-0.000113098 -0.000113098 6254.26) (-0.000113098 -0.000113098 6254.26) (-0.000113098 -0.000113098 6254.26) (-0.000113098 -0.000113098 6254.26) (-0.000113098 -0.000113098 6254.26) (-0.000113098 -0.000113098 6254.26) (-0.000243865 -0.000243865 6253.96) (-0.000243865 -0.000243865 6253.96) (-0.000243865 -0.000243865 6253.96) (-0.000243865 -0.000243865 6253.96) (-0.000243865 -0.000243865 6253.96)
1400          (-0.000113098 -0.000113098 6254.26) (-0.000113098 -0.000113098 6254.26) (-0.000113098 -0.000113098 6254.26) (-0.000113098 -0.000113098 6254.26) (-0.000113098 -0.000113098 6254.26) (-0.000113098 -0.000113098 6254.26) (-0.000243865 -0.000243865 6253.96) (-0.000243865 -0.000243865 6253.96) (-0.000243865 -0.000243865 6253.96) (-0.000243865 -0.000243865 6253.96) (-0.000243865 -0.000243865 6253.96)
1450          (-0.000113098 -0.000113098 6254.26) (-0.000113098 -0.000113098 6254.26) (-0.000113098 -0.000113098 6254.26) (-0.000113098 -0.000113098 6254.26) (-0.000113098 -0.000113098 6254.26) (-0.000113098 -0.000113098 6254.26) (-0.000243865 -0.000243865 6253.96) (-0.000243865 -0.000243865 6253.96) (-0.000243865 -0.000243865 6253.96) (-0.000243865 -0.000243865 6253.96) (-0.000243865 -0.000243865 6253.96)
1500          (-0.000113098 -0.000113098 6254.26) (-0.000113098 -0.000113098 6254.26) (-0.000113098 -0.000113098 6254.26) (-0.000113098 -0.000113098 6254.26) (-0.000113098 -0.000113098 6254.26) (-0.000113098 -0.000113098 6254.26) (-0.000243865 -0.000243865 6253.96) (-0.000243865 -0.000243865 6253.96) (-0.000243865 -0.000243865 6253.96) (-0.000243865 -0.000243865 6253.96) (-0.000243865 -0.000243865 6253.96)
1550          (-0.000113098 -0.000113098 6254.26) (-0.000113098 -0.000113098 6254.26) (-0.000113098 -0.000113098 6254.26) (-0.000113098 -0.000113098 6254.26) (-0.000113098 -0.000113098 6254.26) (-0.000113098 -0.000113098 6254.26) (-0.000243865 -0.000243865 6253.96) (-0.000243865 -0.000243865 6253.96) (-0.000243865 -0.000243865 6253.96) (-0.000243865 -0.000243865 6253.96) (-0.000243865 -0.000243865 6253.96)
1600          (-0.000113098 -0.000113098 6254.26) (-0.000113098 -0.000113098 6254.26) (-0.000113098 -0.000113098 6254.26) (-0.000113098 -0.000113098 6254.26) (-0.000113098 -0.000113098 6254.26) (-0.000113098 -0.000113098 6254.26) (-0.000243865 -0.000243865 6253.96) (-0.000243865 -0.000243865 6253.96) (-0.000243865 -0.000243865 6253.96) (-0.000243865 -0.000243865 6253.96) (-0.000243865 -0.000243865 6253.96)
1650          (-0.000113098 -0.000113098 6254.26) (-0.000113098 -0.000113098 6254.26) (-0.000113098 -0.000113098 6254.26) (-0.000113098 -0.000113098 6254.26) (-0.000113098 -0.000113098 6254.26) (-0.000113098 -0.000113098 6254.26) (-0.000243865 -0.000243865 6253.96) (-0.000243865 -0.000243865 6253.96) (-0.000243865 -0.000243865 6253.96) (-0.000243865 -0.000243865 6253.96) (-0.000243865 -0.000243865 6253.96)
1700          (-0.000113098 -0.000113098 6254.26) (-0.000113098 -0.000113098 6254.26) (-0.000113098 -0.000113098 6254.26) (-0.000113098 -0.000113098 6254.26) (-0.000113098 -0.000113098 6254.26) (-0.000113098 -0.000113098 6254.26) (-0.000243865 -0.000243865 6253.96) (-0.000243865 -0.000243865 6253.96) (-0.000243865 -0.000243865 6253.96) (-0.000243865 -0.000243865 6253.96) (-0.000243865 -0.000243865 6253.96)
1750          (-0.000113098 -0.000113098 6254.26) (-0.000113098 -0.000113098 6254.26) (-0.000113098 -0.000113098 6254.26) (-0.000113098 -0.000113098 6254.26) (-0.000113098 -0.000113098 6254.26) (-0.000113098 -0.000113098 6254.26) (-0.000243865 -0.000243865 6253.96) (-0.000243865 -0.000243865 6253.96) (-0.000243865 -0.000243865 6253.96) (-0.000243865 -0.000243865 6253.96) (-0.000243865 -0.000243865 6253.96)
1800          (-0.000113098 -0.000113098 6254.26) (-0.000113098 -0.000113098 6254.26) (-0.000113098 -0.000113098 6254.26) (-0.000113098 -0.000113098 6254.26) (-0.000113098 -0.000113098 6254.26) (-0.000113098 -0.000113098 6254.26) (-0.000243865 -0.000243865 6253.96) (-0.000243865 -0.000243865 6253.96) (-0.000243865 -0.000243865 6253.96) (-0.000243865 -0.000243865 6253.96) (-0.000243865 -0.000243865 6253.96)
1850          (-0.000113098 -0.000113098 6254.26) (-0.000113098 -0.000113098 6254.26) (-0.000113098 -0.000113098 6254.26) (-0.000113098 -0.000113098 6254.26) (-0.000113098 -0.000113098 6254.26) (-0.000113098 -0.000113098 6254.26) (-0.000243865 -0.000243865 6253.96) (-0.000243865 -0.000243865 6253.96) (-0.000243865 -0.000243865 6253.96) (-0.000243865 -0.000243865 6253.96) (-0.000243865 -0.000243865 6253.96)
1900          (-0.000113098 -0.000113098 6254.26) (-0.000113098 -0.000113098 6254.26) (-0.000113098 -0.000113098 6254.26) (-0.000113098 -0.000113098 6254.26) (-0.000113098 -0.000113098 6254.26) (-0.000113098 -0.000113098 6254.26) (-0.000243865 -0.000243865 6253.96) (-0.000243865 -0.000243865 6253.96) (-0.000243865 -0.000243865 6253.96) (-0.000243865 -0.000243865 6253.96) (-0.000243865 -0.000243865 6253.96)
1950          (-0.000113098 -0.000113098 6254.26) (-0.000113098 -0.000113098 6254.26) (-0.000113098 -0.000113098 6254.26) (-0.000113098 -0.000113098 6254.26) (-0.000113098 -0.000113098 6254.26) (-0.000113098 -0.000113098 6254.26) (-0.000243865 -0.000243865 6253.96) (-0.000243865 -0.000243865 6253.96) (-0.000243865 -0.000243865 6253.96) (-0.000243865 -0.000243865 6253.96) (-0.000243865 -0.000243865 6253.96)
2000          (-0.000113098 -0.000113098 6254.26) (-0.000113098 -0.000113098 6254.26) (-0.000113098 -0.000113098 6254.26) (-0.000113098 -0.000113098 6254.26) (-0.000113098 -0.000113098 6254.26) (-0.000113098 -0.000113098 6254.26) (-0.000243865 -0.000243865 6253.96) (-0.000243865 -0.000243865 6253.96) (-0.000243865 -0.000243865 6253.96) (-0.000243865 -0.000243865 6253.96) (-0.000243865 -0.000243865 6253.96)
2050          (-0.000113098 -0.000113098 6254.26) (-0.000113098 -0.000113098 6254.26) (-0.000113098 -0.000113098 6254.26) (-0.000113098 -0.000113098 6254.26) (-0.000113098 -0.000113098 6254.26) (-0.000113098 -0.000113098 6254.26) (-0.000243865 -0.000243865 6253.96) (-0.000243865 -0.000243865 6253.96) (-0.000243865 -0.000243865 6253.96) (-0.000243865 -0.000243865 6253.96) (-0.000243865 -0.000243865 6253.96)
2100          (-0.000113098 -0.000113098 6254.26) (-0.000113098 -0.000113098 6254.26) (-0.000113098 -0.000113098 6254.26) (-0.000113098 -0.000113098 6254.26) (-0.000113098 -0.000113098 6254.26) (-0.000113098 -0.000113098 6254.26) (-0.000243865 -0.000243865 6253.96) (-0.000243865 -0.000243865 6253.96) (-0.000243865 -0.000243865 6253.96) (-0.000243865 -0.000243865 6253.96) (-0.000243865 -0.000243865 6253.96)
2150          (-0.000113098 -0.000113098 6254.26) (-0.000113098 -0.000113098 6254.26) (-0.000113098 -0.000113098 6254.26) (-0.000113098 -0.000113098 6254.26) (-0.000113098 -0.000113098 6254.26) (-0.000113098 -0.000113098 6254.26) (-0.000243865 -0.000243865 6253.96) (-0.000243865 -0.000243865 6253.96) (-0.000243865 -0.000243865 6253.96) (-0.000243865 -0.000243865 6253.96) (-0.000243865 -0.000243865 6253.96)
2200          (-0.000113098 -0.000113098 6254.26) (-0.000113098 -0.000113098 6254.26) (-0.000113098 -0.000113098 6254.26) (-0.000113098 -0.000113098 6254.26) (-0.000113098 -0.000113098 6254.26) (-0.000113098 -0.000113098 6254.26) (-0.000243865 -0.000243865 6253.96) (-0.000243865 -0.000243865 6253.96) (-0.000243865 -0.000243865 6253.96) (-0.000243865 -0.000243865 6253.96) (-0.000243865 -0.000243865 6253.96)
2250          (-0.000113098 -0.000113098 6254.26) (-0.000113098 -0.000113098 6254.26) (-0.000113098 -0.000113098 6254.26) (-0.000113098 -0.000113098 6254.26) (-0.000113098 -0.000113098 6254.26) (-0.000113098 -0.000113098 6254.26) (-0.000243865 -0.000243865 6253.96) (-0.000243865 -0.000243865 6253.96) (-0.000243865 -0.000243865 6253.96) (-0.000243865 -0.000243865 6253.96) (-0.000243865 -0.000243865 6253.96)
2300          (-0.000113098 -0.000113098 6254.26) (-0.000113098 -0.000113098 6254.26) (-0.000113098 -0.000113098 6254.26) (-0.000113098 -0.000113098 6254.26) (-0.000113098 -0.000113098 6254.26) (-0.000113098 -0.000113098 6254.26) (-0.000243865 -0.000243865 6253.96) (-0.000243865 -0.000243865 6253.96) (-0.000243865 -0.000243865 6253.96) (-0.000243865 -0.000243865 6253.96) (-0.000243865 -0.000243865 6253.96)
2350          (-0.000113098 -0.000113098 6254.26) (-0.000113098 -0.000113098 6254.26) (-0.000113098 -0.000113098 6254.26) (-0.000113098 -0.000113098 6254.26) (-0.000113098 -0.000113098 6254.26) (-0.000113098 -0.000113098 6254.26) (-0.000243865 -0.000243865 6253.96) (-0.000243865 -0.000243865 6253.96) (-0.000243865 -0.000243865 6253.96) (-0.000243865 -0.000243865 6253.96) (-0.000243865 -0.000243865 6253.96)
2400          (-0.000113098 -0.000113098 6254.26) (-0.000113098 -0.000113098 6254.26) (-0.000113098 -0.000113098 6254.26) (-0.000113098 -0.000113098 6254.26) (-0.000113098 -0.000113098 6254.26) (-0.000113098 -0.000113098 6254.26) (-0.000243865 -0.000243865 6253.96) (-0.000243865 -0.000243865 6253.96) (-0.000243865 -0.000243865 6253.96) (-0.000243865 -0.000243865 6253.96) (-0.000243865 -0.000243865 6253.96)
2450          (-0.000113098 -0.000113098 6254.26) (-0.000113098 -0.000113098 6254.26) (-0.000113098 -0.000113098 6254.26) (-0.000113098 -0.000113098 6254.26) (-0.000113098 -0.000113098 6254.26) (-0.000113098 -0.000113098 6254.26) (-0.000243865 -0.000243865 6253.96) (-0.000243865 -0.000243865 6253.96) (-0.000243865 -0.000243865 6253.96) (-0.000243865 -0.000243865 6253.96) (-0.000243865 -0.000243865 6253.96)
2500          (-0.000113098 -0.000113098 6254.26) (-0.000113098 -0.000113098 6254.26) (-0.000113098 -0.000113098 6254.26) (-0.000113098 -0.000113098 6254.26) (-0.000113098 -0.000113098 6254.26) (-0.000113098 -0.000113098 6254.26) (-0.000243865 -0.000243865 6253.96) (-0.000243865 -0.000243865 6253.96) (-0.000243865 -0.000243865 6253.96) (-0.000243865 -0.000243865 6253.96) (-0.000243865 -0.000243865 6253.96)
2550          (-0.000113098 -0.000113098 6254.26) (-0.000113098 -0.000113098 6254.26) (-0.000113098 -0.000113098 6254.26) (-0.000113098 -0.000113098 6254.26) (-0.000113098 -0.000113098 6254.26) (-0.000113098 -0.000113098 6254.26) (-0.000243865 -0.000243865 6253.96) (-0.000243865 -0.000243865 6253.96) (-0.000243865 -0.000243865 6253.96) (-0.000243865 -0.000243865 6253.96) (-0.000243865 -0.000243865 6253.96)
2600          (-0.000113098 -0.000113098 6254.26) (-0.000113098 -0.000113098 6254.26) (-0.000113098 -0.000113098 6254.26) (-0.000113098 -0.000113098 6254.26) (-0.000113098 -0.000113098 6254.26) (-0.000113098 -0.000113098 6254.26) (-0.000243865 -0.000243865 6253.96) (-0.000243865 -0.000243865 6253.96) (-0.000243865 -0.000243865 6253.96) (-0.000243865 -0.000243865 6253.96) (-0.000243865 -0.000243865 6253.96)
2650          (-0.000113098 -0.000113098 6254.26) (-0.000113098 -0.000113098 6254.26) (-0.000113098 -0.000113098 6254.26) (-0.000113098 -0.000113098 6254.26) (-0.000113098 -0.000113098 6254.26) (-0.000113098 -0.000113098 6254.26) (-0.000243865 -0.000243865 6253.96) (-0.000243865 -0.000243865 6253.96) (-0.000243865 -0.000243865 6253.96) (-0.000243865 -0.000243865 6253.96) (-0.000243865 -0.000243865 6253.96)
2700          (-0.000113098 -0.000113098 6254.26) (-0.000113098 -0.000113098 6254.26) (-0.000113098 -0.000113098 6254.26) (-0.000113098 -0.000113098 6254.26) (-0.000113098 -0.000113098 6254.26) (-0.000113098 -0.000113098 6254.26) (-0.000243865 -0.000243865 6253.96) (-0.000243865 -0.000243865 6253.96) (-0.000243865 -0.000243865 6253.96) (-0.000243865 -0.000243865 6253.96) (-0.000243865 -0.000243865 6253.96)
2750          (-0.000113098 -0.000113098 6254.26) (-0.000113098 -0.000113098 6254.26) (-0.000113098 -0.000113098 6254.26) (-0.000113098 -0.000113098 6254.26) (-0.000113098 -0.000113098 6254.26) (-0.000113098 -0.000113098 6254.26) (-0.000243865 -0.000243865 6253.96) (-0.000243865 -0.000243865 6253.96) (-0.000243865 -0.000243865 6253.96) (-0.000243865 -0.000243865 6253.96) (-0.000243865 -0.000243865 6253.96)
2800          (-0.000113098 -0.000113098 6254.26) (-0.000113098 -0.000113098 6254.26) (-0.000113098 -0.000113098 6254.26) (-0.000113098 -0.000113098 6254.26) (-0.000113098 -0.000113098 6254.26) (-0.000113098 -0.000113098 6254.26) (-0.000243865 -0.000243865 6253.96) (-0.000243865 -0.000243865 6253.96) (-0.000243865 -0.000243865 6253.96) (-0.000243865 -0.000243865 6253.96) (-0.000243865 -0.000243865 6253.96)
2850          (-0.000113098 -0.000113098 6254.26) (-0.000113098 -0.000113098 6254.26) (-0.000113098 -0.000113098 6254.26) (-0.000113098 -0.000113098 6254.26) (-0.000113098 -0.000113098 6254.26) (-0.000113098 -0.000113098 6254.26) (-0.000243865 -0.000243865 6253.96) (-0.000243865 -0.000243865 6253.96) (-0.000243865 -0.000243865 6253.96) (-0.000243865 -0.000243865 6253.96) (-0.000243865 -0.000243865 6253.96)
2900          (-0.000113098 -0.000113098 6254.26) (-0.000113098 -0.000113098 6254.26) (-0.000113098 -0.000113098 6254.26) (-0.000113098 -0.000113098 6254.26) (-0.000113098 -0.000113098 6254.26) (-0.000113098 -0.000113098 6254.26) (-0.000243865 -0.000243865 6253.96) (-0.000243865 -0.000243865 6253.96) (-0.000243865 -0.000243865 6253.96) (-0.000243865 -0.000243865 6253.96) (-0.000243865 -0.000243865 6253.96)
2950          (-0.000113098 -0.000113098 6254.26) (-0.000113098 -0.000113098 6254.26) (-0.000113098 -0.000113098 6254.26) (-0.000113098 -0.000113098 6254.26) (-0.000113098 -0.000113098 6254.26) (-0.000113098 -0.000113098 6254.26) (-0.000243865 -0.000243865 6253.96) (-0.000243865 -0.000243865 6253.96) (-0.000243865 -0.000243865 6253.96) (-0.000243865 -0.000243865 6253.96) (-0.000243865 -0.000243865 6253.96)
3000          (-0.000113098 -0.000113098 6254.26) (-0.000113098 -0.000113098 6254.26) (-0.000113098 -0.000113098 6254.26) (-0.000113098 -0.000113098 6254.26) (-0.000113098 -0.000113098 6254.26) (-0.000113098 -0.000113098 6254.26) (-0.000243865 -0.000243865 6253.96) (-0.000243865 -0.000243865 6253.96) (-0.000243865 -0.000243865 6253.96) (-0.000243865 -0.000243865 6253.96) (-0.000243865 -0.000243865 6253.96)
3050          (-0.000113098 -0.000113098 6254.26) (-0.000113098 -0.000113098 6254.26) (-0.000113098 -0.000113098 6254.26) (-0.000113098 -0.000113098 6254.26) (-0.000113098 -0.000113098 6254.26) (-0.000113098 -0.000113098 6254.26) (-0.000243865 -0.000243865 6253.96) (-0.000243865 -0.000243865 6253.96) (-0.000243865 -0.000243865 6253.96) (-0.000243865 -0.000243865 6253.96) (-0.000243865 -0.000243865 6253.96)
3100          (-0.000113098 -0.000113098 6254.26) (-0.000113098 -0.000113098 6254.26) (-0.000113098 -0.000113098 6254.26) (-0.000113098 -0.000113098 6254.26) (-0.000113098 -0.000113098 6254.26) (-0.000113098 -0.000113098 6254.26) (-0.000243865 -0.000243865 6253.96) (-0.000243865 -0.000243865 6253.96) (-0.000243865 -0.000243865 6253.96) (-0.000243865 -0.000243865 6253.96) (-0.000243865 -0.000243865 6253.96)
3150          (-0.000113098 -0.000113098 6254.26) (-0.000113098 -0.000113098 6254.26) (-0.000113098 -0.000113098 6254.26) (-0.000113098 -0.000113098 6254.26) (-0.000113098 -0.000113098 6254.26) (-0.000113098 -0.000113098 6254.26) (-0.000243865 -0.000243865 6253.96) (-0.000243865 -0.000243865 6253.96) (-0.000243865 -0.000243865 6253.96) (-0.000243865 -0.000243865 6253.96) (-0.000243865 -0.000243865 6253.96)
3200          (-0.000113098 -0.000113098 6254.26) (-0.000113098 -0.000113098 6254.26) (-0.000113098 -0.000113098 6254.26) (-0.000113098 -0.000113098 6254.26) (-0.000113098 -0.000113098 6254.26) (-0.000113098 -0.000113098 6254.26) (-0.000243865 -0.000243865 6253.96) (-0.000243865 -0.000243865 6253.96) (-0.000243865 -0.000243865 6253.96) (-0.000243865 -0.000243865 6253.96) (-0.000243865 -0.000243865 6253.96)
3250          (-0.000113098 -0.000113098 6254.26) (-0.000113098 -0.000113098 6254.26) (-0.000113098 -0.000113098 6254.26) (-0.000113098 -0.000113098 6254.26) (-0.000113098 -0.000113098 6254.26) (-0.000113098 -0.000113098 6254.26) (-0.000243865 -0.000243865 6253.96) (-0.000243865 -0.000243865 6253.96) (-0.000243865 -0.000243865 6253.96) (-0.000243865 -0.000243865 6253.96) (-0.000243865 -0.000243865 6253.96)
3300          (-0.000113098 -0.000113098 6254.26) (-0.000113098 -0.000113098 6254.26) (-0.000113098 -0.000113098 6254.26) (-0.000113098 -0.000113098 6254.26) (-0.000113098 -0.000113098 6254.26) (-0.000113098 -0.000113098 6254.26) (-0.000243865 -0.000243865 6253.96) (-0.000243865 -0.000243865 6253.96) (-0.000243865 -0.000243865 6253.96) (-0.000243865 -0.000243865 6253.96) (-0.000243865 -0.000243865 6253.96)
3350          (-0.000113098 -0.000113098 6254.26) (-0.000113098 -0.000113098 6254.26) (-0.000113098 -0.000113098 6254.26) (-0.000113098 -0.000113098 6254.26) (-0.000113098 -0.000113098 6254.26) (-0.000113098 -0.000113098 6254.26) (-0.000243865 -0.000243865 6253.96) (-0.000243865 -0.000243865 6253.96) (-0.000243865 -0.000243865 6253.96) (-0.000243865 -0.000243865 6253.96) (-0.000243865 -0.000243865 6253.96)
3400          (-0.000113098 -0.000113098 6254.26) (-0.000113098 -0.000113098 6254.26) (-0.000113098 -0.000113098 6254.26) (-0.000113098 -0.000113098 6254.26) (-0.000113098 -0.000113098 6254.26) (-0.000113098 -0.000113098 6254.26) (-0.000243865 -0.000243865 6253.96) (-0.000243865 -0.000243865 6253.96) (-0.000243865 -0.000243865 6253.96) (-0.000243865 -0.000243865 6253.96) (-0.000243865 -0.000243865 6253.96)
3450          (-0.000113098 -0.000113098 6254.26) (-0.000113098 -0.000113098 6254.26) (-0.000113098 -0.000113098 6254.26) (-0.000113098 -0.000113098 6254.26) (-0.000113098 -0.000113098 6254.26) (-0.000113098 -0.000113098 6254.26) (-0.000243865 -0.000243865 6253.96) (-0.000243865 -0.000243865 6253.96) (-0.000243865 -0.000243865 6253.96) (-0.000243865 -0.000243865 6253.96) (-0.000243865 -0.000243865 6253.96)
3500          (-0.000113098 -0.000113098 6254.26) (-0.000113098 -0.000113098 6254.26) (-0.000113098 -0.000113098 6254.26) (-0.000113098 -0.000113098 6254.26) (-0.000113098 -0.000113098 6254.26) (-0.000113098 -0.000113098 6254.26) (-0.000243865 -0.000243865 6253.96) (-0.000243865 -0.000243865 6253.96) (-0.000243865 -0.000243865 6253.96) (-0.000243865 -0.000243865 6253.96) (-0.000243865 -0.000243865 6253.96)
3550          (-0.000113098 -0.000113098 6254.26) (-0.000113098 -0.000113098 6254.26) (-0.000113098 -0.000113098 6254.26) (-0.000113098 -0.000113098 6254.26) (-0.000113098 -0.000113098 6254.26) (-0.000113098 -0.000113098 6254.26) (-0.000243865 -0.000243865 6253.96) (-0.000243865 -0.000243865 6253.96) (-0.000243865 -0.000243865 6253.96) (-0.000243865 -0.000243865 6253.96) (-0.000243865 -0.000243865 6253.96)
3600          (-0.000113098 -0.000113098 6254.26) (-0.000113098 -0.000113098 6254.26) (-0.000113098 -0.000113098 6254.26) (-0.000113098 -0.000113098 6254.26) (-0.000113098 -0.000113098 6254.26) (-0.000113098 -0.000113098 6254.26) (-0.000243865 -0.000243865 6253.96) (-0.000243865 -0.000243865 6253.96) (-0.000243865 -0.000243865 6253.96) (-0.000243865 -0.000243865 6253.96) (-0.000243865 -0.000243865 6253.96)
3650          (-0.000113098 -0.000113098 6254.26) (-0.000113098 -0.000113098 6254.26) (-0.000113098 -0.000113098 6254.26) (-0.000113098 -0.000113098 6254.26) (-0.000113098 -0.000113098 6254.26) (-0.000113098 -0.000113098 6254.26) (-0.000243865 -0.000243865 6253.96) (-0.000243865 -0.000243865 6253.96) (-0.000243865 -0.000243865 6253.96) (-0.000243865 -0.000243865 6253.96) (-0.000243865 -0.000243865 6253.96)