# Probe 0 (0.0015 0.0015 0)
# Probe 1 (0.0015 0.0015 0.002)
# Probe 2 (0.0015 0.0015 0.004)
# Probe 3 (0.0015 0.0015 0.006)
# Probe 4 (0.0015 0.0015 0.008)
# Probe 5 (0.0015 0.0015 0.01)
# Probe 6 (0.0015 0.0015 0.012)
# Probe 7 (0.0015 0.0015 0.014)
# Probe 8 (0.0015 0.0015 0.016)
# Probe 9 (0.0015 0.0015 0.018)
# Probe 10 (0.0015 0.0015 0.02)
# Time        0             1             2             3             4             5             6             7             8             9             10           
50            (-1.48075e-11 -1.20536e-13 2.92004e-11) (-1.48075e-11 -1.20536e-13 2.92004e-11) (-1.48075e-11 -1.20536e-13 2.92004e-11) (-1.48075e-11 -1.20536e-13 2.92004e-11) (-1.48075e-11 -1.20536e-13 2.92004e-11) (-1.48075e-11 -1.20536e-13 2.92004e-11) (-1.30563e-12 1.37912e-11 1.01748e-10) (-1.30563e-12 1.37912e-11 1.01748e-10) (-1.30563e-12 1.37912e-11 1.01748e-10) (-1.30563e-12 1.37912e-11 1.01748e-10) (-1.30563e-12 1.37912e-11 1.01748e-10)
100           (-1.49254e-11 7.34193e-12 -2.26367e-11) (-1.49254e-11 7.34193e-12 -2.26367e-11) (-1.49254e-11 7.34193e-12 -2.26367e-11) (-1.49254e-11 7.34193e-12 -2.26367e-11) (-1.49254e-11 7.34193e-12 -2.26367e-11) (-1.49254e-11 7.34193e-12 -2.26367e-11) (-1.32292e-11 -1.68271e-12 -1.06599e-11) (-1.32292e-11 -1.68271e-12 -1.06599e-11) (-1.32292e-11 -1.68271e-12 -1.06599e-11) (-1.32292e-11 -1.68271e-12 -1.06599e-11) (-1.32292e-11 -1.68271e-12 -1.06599e-11)
150           (-1.18686e-13 -5.9781e-16 -2.29701e-12) (-1.18686e-13 -5.9781e-16 -2.29701e-12) (-1.18686e-13 -5.9781e-16 -2.29701e-12) (-1.18686e-13 -5.9781e-16 -2.29701e-12) (-1.18686e-13 -5.9781e-16 -2.29701e-12) (-1.18686e-13 -5.9781e-16 -2.29701e-12) (-2.99861e-11 -1.64006e-11 3.95613e-11) (-2.99861e-11 -1.64006e-11 3.95613e-11) (-2.99861e-11 -1.64006e-11 3.95613e-11) (-2.99861e-11 -1.64006e-11 3.95613e-11) (-2.99861e-11 -1.64006e-11 3.95613e-11)
200           (1.41331e-12 1.54491e-11 3.7478e-11) (1.41331e-12 1.54491e-11 3.7478e-11) (1.41331e-12 1.54491e-11 3.7478e-11) (1.41331e-12 1.54491e-11 3.7478e-11) (1.41331e-12 1.54491e-11 3.7478e-11) (1.41331e-12 1.54491e-11 3.7478e-11) (-8.2024e-13 -6.27861e-13 6.41394e-11) (-8.2024e-13 -6.27861e-13 6.41394e-11) (-8.2024e-13 -6.27861e-13 6.41394e-11) (-8.2024e-13 -6.27861e-13 6.41394e-11) (-8.2024e-13 -6.27861e-13 6.41394e-11)
250           (8.35736e-14 2.90164e-13 7.6939e-11) (8.35736e-14 2.90164e-13 7.6939e-11) (8.35736e-14 2.90164e-13 7.6939e-11) (8.35736e-14 2.90164e-13 7.6939e-11) (8.35736e-14 2.90164e-13 7.6939e-11) (8.35736e-14 2.90164e-13 7.6939e-11) (1.52956e-11 1.47528e-11 2.0381e-10) (1.52956e-11 1.47528e-11 2.0381e-10) (1.52956e-11 1.47528e-11 2.0381e-10) (1.52956e-11 1.47528e-11 2.0381e-10) (1.52956e-11 1.47528e-11 2.0381e-10)
300           (-1.21921e-13 7.61598e-12 -4.02607e-11) (-1.21921e-13 7.61598e-12 -4.02607e-11) (-1.21921e-13 7.61598e-12 -4.02607e-11) (-1.21921e-13 7.61598e-12 -4.02607e-11) (-1.21921e-13 7.61598e-12 -4.02607e-11) (-1.21921e-13 7.61598e-12 -4.02607e-11) (-1.49131e-11 -7.6779e-12 -4.36478e-11) (-1.49131e-11 -7.6779e-12 -4.36478e-11) (-1.49131e-11 -7.6779e-12 -4.36478e-11) (-1.49131e-11 -7.6779e-12 -4.36478e-11) (-1.49131e-11 -7.6779e-12 -4.36478e-11)
350           (1.46097e-12 -4.14523e-14 4.59008e-11) (1.46097e-12 -4.14523e-14 4.59008e-11) (1.46097e-12 -4.14523e-14 4.59008e-11) (1.46097e-12 -4.14523e-14 4.59008e-11) (1.46097e-12 -4.14523e-14 4.59008e-11) (1.46097e-12 -4.14523e-14 4.59008e-11) (1.48995e-11 -1.9634e-13 1.27344e-10) (1.48995e-11 -1.9634e-13 1.27344e-10) (1.48995e-11 -1.9634e-13 1.27344e-10) (1.48995e-11 -1.9634e-13 1.27344e-10) (1.48995e-11 -1.9634e-13 1.27344e-10)
400           (2.4687e-15 1.14313e-12 -1.23656e-11) (2.4687e-15 1.14313e-12 -1.23656e-11) (2.4687e-15 1.14313e-12 -1.23656e-11) (2.4687e-15 1.14313e-12 -1.23656e-11) (2.4687e-15 1.14313e-12 -1.23656e-11) (2.4687e-15 1.14313e-12 -1.23656e-11) (1.50529e-11 -1.14705e-13 4.40567e-11) (1.50529e-11 -1.14705e-13 4.40567e-11) (1.50529e-11 -1.14705e-13 4.40567e-11) (1.50529e-11 -1.14705e-13 4.40567e-11) (1.50529e-11 -1.14705e-13 4.40567e-11)
450           (-1.57111e-12 1.75447e-13 6.93838e-11) (-1.57111e-12 1.75447e-13 6.93838e-11) (-1.57111e-12 1.75447e-13 6.93838e-11) (-1.57111e-12 1.75447e-13 6.93838e-11) (-1.57111e-12 1.75447e-13 6.93838e-11) (-1.57111e-12 1.75447e-13 6.93838e-11) (-1.7774e-11 -1.53289e-14 1.78404e-10) (-1.7774e-11 -1.53289e-14 1.78404e-10) (-1.7774e-11 -1.53289e-14 1.78404e-10) (-1.7774e-11 -1.53289e-14 1.78404e-10) (-1.7774e-11 -1.53289e-14 1.78404e-10)
500           (-1.39693e-13 1.041e-13 6.81782e-11) (-1.39693e-13 1.041e-13 6.81782e-11) (-1.39693e-13 1.041e-13 6.81782e-11) (-1.39693e-13 1.041e-13 6.81782e-11) (-1.39693e-13 1.041e-13 6.81782e-11) (-1.39693e-13 1.041e-13 6.81782e-11) (-1.63648e-11 1.49918e-11 1.51536e-10) (-1.63648e-11 1.49918e-11 1.51536e-10) (-1.63648e-11 1.49918e-11 1.51536e-10) (-1.63648e-11 1.49918e-11 1.51536e-10) (-1.63648e-11 1.49918e-11 1.51536e-10)
550           (1.49421e-11 1.86642e-14 2.13273e-11) (1.49421e-11 1.86642e-14 2.13273e-11) (1.49421e-11 1.86642e-14 2.13273e-11) (1.49421e-11 1.86642e-14 2.13273e-11) (1.49421e-11 1.86642e-14 2.13273e-11) (1.49421e-11 1.86642e-14 2.13273e-11) (1.56638e-12 -9.95863e-15 7.84591e-11) (1.56638e-12 -9.95863e-15 7.84591e-11) (1.56638e-12 -9.95863e-15 7.84591e-11) (1.56638e-12 -9.95863e-15 7.84591e-11) (1.56638e-12 -9.95863e-15 7.84591e-11)
600           (9.01277e-12 6.23539e-12 -1.60572e-11) (9.01277e-12 6.23539e-12 -1.60572e-11) (9.01277e-12 6.23539e-12 -1.60572e-11) (9.01277e-12 6.23539e-12 -1.60572e-11) (9.01277e-12 6.23539e-12 -1.60572e-11) (9.01277e-12 6.23539e-12 -1.60572e-11) (1.63685e-11 -1.43184e-12 -6.36623e-12) (1.63685e-11 -1.43184e-12 -6.36623e-12) (1.63685e-11 -1.43184e-12 -6.36623e-12) (1.63685e-11 -1.43184e-12 -6.36623e-12) (1.63685e-11 -1.43184e-12 -6.36623e-12)
650           (2.52476e-14 7.34404e-12 -2.65552e-11) (2.52476e-14 7.34404e-12 -2.65552e-11) (2.52476e-14 7.34404e-12 -2.65552e-11) (2.52476e-14 7.34404e-12 -2.65552e-11) (2.52476e-14 7.34404e-12 -2.65552e-11) (2.52476e-14 7.34404e-12 -2.65552e-11) (-1.32201e-11 7.46323e-12 -1.17544e-10) (-1.32201e-11 7.46323e-12 -1.17544e-10) (-1.32201e-11 7.46323e-12 -1.17544e-10) (-1.32201e-11 7.46323e-12 -1.17544e-10) (-1.32201e-11 7.46323e-12 -1.17544e-10)
700           (1.48064e-11 -1.6795e-13 8.07803e-11) (1.48064e-11 -1.6795e-13 8.07803e-11) (1.48064e-11 -1.6795e-13 8.07803e-11) (1.48064e-11 -1.6795e-13 8.07803e-11) (1.48064e-11 -1.6795e-13 8.07803e-11) (1.48064e-11 -1.6795e-13 8.07803e-11) (1.51712e-11 1.31649e-11 1.08083e-10) (1.51712e-11 1.31649e-11 1.08083e-10) (1.51712e-11 1.31649e-11 1.08083e-10) (1.51712e-11 1.31649e-11 1.08083e-10) (1.51712e-11 1.31649e-11 1.08083e-10)
750           (-7.28472e-12 -1.40223e-12 -3.39236e-11) (-7.28472e-12 -1.40223e-12 -3.39236e-11) (-7.28472e-12 -1.40223e-12 -3.39236e-11) (-7.28472e-12 -1.40223e-12 -3.39236e-11) (-7.28472e-12 -1.40223e-12 -3.39236e-11) (-7.28472e-12 -1.40223e-12 -3.39236e-11) (-1.50736e-11 -2.00488e-13 -3.67692e-11) (-1.50736e-11 -2.00488e-13 -3.67692e-11) (-1.50736e-11 -2.00488e-13 -3.67692e-11) (-1.50736e-11 -2.00488e-13 -3.67692e-11) (-1.50736e-11 -2.00488e-13 -3.67692e-11)
800           (-1.52834e-12 2.44117e-13 4.52971e-11) (-1.52834e-12 2.44117e-13 4.52971e-11) (-1.52834e-12 2.44117e-13 4.52971e-11) (-1.52834e-12 2.44117e-13 4.52971e-11) (-1.52834e-12 2.44117e-13 4.52971e-11) (-1.52834e-12 2.44117e-13 4.52971e-11) (-1.62372e-11 -3.54984e-13 1.19076e-10) (-1.62372e-11 -3.54984e-13 1.19076e-10) (-1.62372e-11 -3.54984e-13 1.19076e-10) (-1.62372e-11 -3.54984e-13 1.19076e-10) (-1.62372e-11 -3.54984e-13 1.19076e-10)
850           (-1.58166e-12 1.48377e-12 2.82351e-11) (-1.58166e-12 1.48377e-12 2.82351e-11) (-1.58166e-12 1.48377e-12 2.82351e-11) (-1.58166e-12 1.48377e-12 2.82351e-11) (-1.58166e-12 1.48377e-12 2.82351e-11) (-1.58166e-12 1.48377e-12 2.82351e-11) (1.49697e-11 1.6912e-12 1.21562e-10) (1.49697e-11 1.6912e-12 1.21562e-10) (1.49697e-11 1.6912e-12 1.21562e-10) (1.49697e-11 1.6912e-12 1.21562e-10) (1.49697e-11 1.6912e-12 1.21562e-10)
900           (1.48237e-11 1.47873e-11 4.56452e-11) (1.48237e-11 1.47873e-11 4.56452e-11) (1.48237e-11 1.47873e-11 4.56452e-11) (1.48237e-11 1.47873e-11 4.56452e-11) (1.48237e-11 1.47873e-11 4.56452e-11) (1.48237e-11 1.47873e-11 4.56452e-11) (-4.5849e-15 -3.29182e-15 1.55709e-10) (-4.5849e-15 -3.29182e-15 1.55709e-10) (-4.5849e-15 -3.29182e-15 1.55709e-10) (-4.5849e-15 -3.29182e-15 1.55709e-10) (-4.5849e-15 -3.29182e-15 1.55709e-10)
950           (-1.47754e-11 1.63808e-11 -4.45215e-12) (-1.47754e-11 1.63808e-11 -4.45215e-12) (-1.47754e-11 1.63808e-11 -4.45215e-12) (-1.47754e-11 1.63808e-11 -4.45215e-12) (-1.47754e-11 1.63808e-11 -4.45215e-12) (-1.47754e-11 1.63808e-11 -4.45215e-12) (1.25279e-13 1.22173e-12 2.20066e-11) (1.25279e-13 1.22173e-12 2.20066e-11) (1.25279e-13 1.22173e-12 2.20066e-11) (1.25279e-13 1.22173e-12 2.20066e-11) (1.25279e-13 1.22173e-12 2.20066e-11)
1000          (1.45265e-12 -1.24372e-12 2.73648e-11) (1.45265e-12 -1.24372e-12 2.73648e-11) (1.45265e-12 -1.24372e-12 2.73648e-11) (1.45265e-12 -1.24372e-12 2.73648e-11) (1.45265e-12 -1.24372e-12 2.73648e-11) (1.45265e-12 -1.24372e-12 2.73648e-11) (1.65231e-11 -2.27019e-13 4.7507e-11) (1.65231e-11 -2.27019e-13 4.7507e-11) (1.65231e-11 -2.27019e-13 4.7507e-11) (1.65231e-11 -2.27019e-13 4.7507e-11) (1.65231e-11 -2.27019e-13 4.7507e-11)
1050          (-6.17892e-14 2.32186e-13 1.13213e-11) (-6.17892e-14 2.32186e-13 1.13213e-11) (-6.17892e-14 2.32186e-13 1.13213e-11) (-6.17892e-14 2.32186e-13 1.13213e-11) (-6.17892e-14 2.32186e-13 1.13213e-11) (-6.17892e-14 2.32186e-13 1.13213e-11) (-7.58392e-13 5.4687e-14 9.07988e-11) (-7.58392e-13 5.4687e-14 9.07988e-11) (-7.58392e-13 5.4687e-14 9.07988e-11) (-7.58392e-13 5.4687e-14 9.07988e-11) (-7.58392e-13 5.4687e-14 9.07988e-11)
1100          (-1.16081e-14 -1.64244e-12 4.0754e-11) (-1.16081e-14 -1.64244e-12 4.0754e-11) (-1.16081e-14 -1.64244e-12 4.0754e-11) (-1.16081e-14 -1.64244e-12 4.0754e-11) (-1.16081e-14 -1.64244e-12 4.0754e-11) (-1.16081e-14 -1.64244e-12 4.0754e-11) (1.7929e-14 6.45848e-14 1.17675e-10) (1.7929e-14 6.45848e-14 1.17675e-10) (1.7929e-14 6.45848e-14 1.17675e-10) (1.7929e-14 6.45848e-14 1.17675e-10) (1.7929e-14 6.45848e-14 1.17675e-10)
1150          (1.50778e-11 -1.6312e-11 5.96167e-11) (1.50778e-11 -1.6312e-11 5.96167e-11) (1.50778e-11 -1.6312e-11 5.96167e-11) (1.50778e-11 -1.6312e-11 5.96167e-11) (1.50778e-11 -1.6312e-11 5.96167e-11) (1.50778e-11 -1.6312e-11 5.96167e-11) (1.54028e-11 -1.48204e-11 1.79646e-10) (1.54028e-11 -1.48204e-11 1.79646e-10) (1.54028e-11 -1.48204e-11 1.79646e-10) (1.54028e-11 -1.48204e-11 1.79646e-10) (1.54028e-11 -1.48204e-11 1.79646e-10)
1200          (-2.73162e-13 -1.51833e-11 9.67614e-11) (-2.73162e-13 -1.51833e-11 9.67614e-11) (-2.73162e-13 -1.51833e-11 9.67614e-11) (-2.73162e-13 -1.51833e-11 9.67614e-11) (-2.73162e-13 -1.51833e-11 9.67614e-11) (-2.73162e-13 -1.51833e-11 9.67614e-11) (1.79346e-12 1.56571e-11 2.51933e-10) (1.79346e-12 1.56571e-11 2.51933e-10) (1.79346e-12 1.56571e-11 2.51933e-10) (1.79346e-12 1.56571e-11 2.51933e-10) (1.79346e-12 1.56571e-11 2.51933e-10)
1250          (-1.49738e-11 2.79539e-14 3.2689e-12) (-1.49738e-11 2.79539e-14 3.2689e-12) (-1.49738e-11 2.79539e-14 3.2689e-12) (-1.49738e-11 2.79539e-14 3.2689e-12) (-1.49738e-11 2.79539e-14 3.2689e-12) (-1.49738e-11 2.79539e-14 3.2689e-12) (-1.40891e-11 -1.69898e-12 7.00096e-11) (-1.40891e-11 -1.69898e-12 7.00096e-11) (-1.40891e-11 -1.69898e-12 7.00096e-11) (-1.40891e-11 -1.69898e-12 7.00096e-11) (-1.40891e-11 -1.69898e-12 7.00096e-11)
1300          (1.96991e-14 -1.351e-12 7.5896e-11) (1.96991e-14 -1.351e-12 7.5896e-11) (1.96991e-14 -1.351e-12 7.5896e-11) (1.96991e-14 -1.351e-12 7.5896e-11) (1.96991e-14 -1.351e-12 7.5896e-11) (1.96991e-14 -1.351e-12 7.5896e-11) (-1.36846e-12 -1.69659e-12 2.33584e-10) (-1.36846e-12 -1.69659e-12 2.33584e-10) (-1.36846e-12 -1.69659e-12 2.33584e-10) (-1.36846e-12 -1.69659e-12 2.33584e-10) (-1.36846e-12 -1.69659e-12 2.33584e-10)
1350          (2.04446e-13 -3.82974e-13 7.33587e-11) (2.04446e-13 -3.82974e-13 7.33587e-11) (2.04446e-13 -3.82974e-13 7.33587e-11) (2.04446e-13 -3.82974e-13 7.33587e-11) (2.04446e-13 -3.82974e-13 7.33587e-11) (2.04446e-13 -3.82974e-13 7.33587e-11) (2.74158e-13 1.49867e-11 1.70592e-10) (2.74158e-13 1.49867e-11 1.70592e-10) (2.74158e-13 1.49867e-11 1.70592e-10) (2.74158e-13 1.49867e-11 1.70592e-10) (2.74158e-13 1.49867e-11 1.70592e-10)
1400          (1.6463e-11 1.37106e-14 5.34284e-11) (1.6463e-11 1.37106e-14 5.34284e-11) (1.6463e-11 1.37106e-14 5.34284e-11) (1.6463e-11 1.37106e-14 5.34284e-11) (1.6463e-11 1.37106e-14 5.34284e-11) (1.6463e-11 1.37106e-14 5.34284e-11) (-1.48864e-11 1.83031e-13 1.00022e-10) (-1.48864e-11 1.83031e-13 1.00022e-10) (-1.48864e-11 1.83031e-13 1.00022e-10) (-1.48864e-11 1.83031e-13 1.00022e-10) (-1.48864e-11 1.83031e-13 1.00022e-10)
1450          (-2.95909e-14 -8.76185e-14 3.93972e-12) (-2.95909e-14 -8.76185e-14 3.93972e-12) (-2.95909e-14 -8.76185e-14 3.93972e-12) (-2.95909e-14 -8.76185e-14 3.93972e-12) (-2.95909e-14 -8.76185e-14 3.93972e-12) (-2.95909e-14 -8.76185e-14 3.93972e-12) (3.00877e-11 7.03944e-13 9.62795e-11) (3.00877e-11 7.03944e-13 9.62795e-11) (3.00877e-11 7.03944e-13 9.62795e-11) (3.00877e-11 7.03944e-13 9.62795e-11) (3.00877e-11 7.03944e-13 9.62795e-11)
1500          (-7.37047e-15 1.99677e-13 5.53054e-11) (-7.37047e-15 1.99677e-13 5.53054e-11) (-7.37047e-15 1.99677e-13 5.53054e-11) (-7.37047e-15 1.99677e-13 5.53054e-11) (-7.37047e-15 1.99677e-13 5.53054e-11) (-7.37047e-15 1.99677e-13 5.53054e-11) (3.87058e-13 -1.48112e-11 1.14736e-10) (3.87058e-13 -1.48112e-11 1.14736e-10) (3.87058e-13 -1.48112e-11 1.14736e-10) (3.87058e-13 -1.48112e-11 1.14736e-10) (3.87058e-13 -1.48112e-11 1.14736e-10)
1550          (-9.57834e-15 -1.16425e-13 2.23942e-11) (-9.57834e-15 -1.16425e-13 2.23942e-11) (-9.57834e-15 -1.16425e-13 2.23942e-11) (-9.57834e-15 -1.16425e-13 2.23942e-11) (-9.57834e-15 -1.16425e-13 2.23942e-11) (-9.57834e-15 -1.16425e-13 2.23942e-11) (9.83045e-14 -1.48137e-11 7.25857e-11) (9.83045e-14 -1.48137e-11 7.25857e-11) (9.83045e-14 -1.48137e-11 7.25857e-11) (9.83045e-14 -1.48137e-11 7.25857e-11) (9.83045e-14 -1.48137e-11 7.25857e-11)
1600          (-8.4106e-15 1.29256e-13 5.86719e-11) (-8.4106e-15 1.29256e-13 5.86719e-11) (-8.4106e-15 1.29256e-13 5.86719e-11) (-8.4106e-15 1.29256e-13 5.86719e-11) (-8.4106e-15 1.29256e-13 5.86719e-11) (-8.4106e-15 1.29256e-13 5.86719e-11) (1.71087e-12 -8.47949e-14 1.99164e-10) (1.71087e-12 -8.47949e-14 1.99164e-10) (1.71087e-12 -8.47949e-14 1.99164e-10) (1.71087e-12 -8.47949e-14 1.99164e-10) (1.71087e-12 -8.47949e-14 1.99164e-10)
1650          (-2.78619e-14 3.99509e-14 2.56086e-11) (-2.78619e-14 3.99509e-14 2.56086e-11) (-2.78619e-14 3.99509e-14 2.56086e-11) (-2.78619e-14 3.99509e-14 2.56086e-11) (-2.78619e-14 3.99509e-14 2.56086e-11) (-2.78619e-14 3.99509e-14 2.56086e-11) (-6.8715e-14 -1.8414e-13 7.94645e-11) (-6.8715e-14 -1.8414e-13 7.94645e-11) (-6.8715e-14 -1.8414e-13 7.94645e-11) (-6.8715e-14 -1.8414e-13 7.94645e-11) (-6.8715e-14 -1.8414e-13 7.94645e-11)
1700          (1.44665e-12 1.53243e-12 1.14439e-11) (1.44665e-12 1.53243e-12 1.14439e-11) (1.44665e-12 1.53243e-12 1.14439e-11) (1.44665e-12 1.53243e-12 1.14439e-11) (1.44665e-12 1.53243e-12 1.14439e-11) (1.44665e-12 1.53243e-12 1.14439e-11) (-1.51074e-11 -1.71585e-12 6.92727e-11) (-1.51074e-11 -1.71585e-12 6.92727e-11) (-1.51074e-11 -1.71585e-12 6.92727e-11) (-1.51074e-11 -1.71585e-12 6.92727e-11) (-1.51074e-11 -1.71585e-12 6.92727e-11)
1750          (-1.1938e-11 -1.33526e-11 -5.59862e-11) (-1.1938e-11 -1.33526e-11 -5.59862e-11) (-1.1938e-11 -1.33526e-11 -5.59862e-11) (-1.1938e-11 -1.33526e-11 -5.59862e-11) (-1.1938e-11 -1.33526e-11 -5.59862e-11) (-1.1938e-11 -1.33526e-11 -5.59862e-11) (1.63174e-11 8.73432e-12 -8.38347e-11) (1.63174e-11 8.73432e-12 -8.38347e-11) (1.63174e-11 8.73432e-12 -8.38347e-11) (1.63174e-11 8.73432e-12 -8.38347e-11) (1.63174e-11 8.73432e-12 -8.38347e-11)
1800          (-1.48313e-11 -1.50834e-11 2.76002e-11) (-1.48313e-11 -1.50834e-11 2.76002e-11) (-1.48313e-11 -1.50834e-11 2.76002e-11) (-1.48313e-11 -1.50834e-11 2.76002e-11) (-1.48313e-11 -1.50834e-11 2.76002e-11) (-1.48313e-11 -1.50834e-11 2.76002e-11) (-1.63293e-11 -1.49506e-11 7.53071e-11) (-1.63293e-11 -1.49506e-11 7.53071e-11) (-1.63293e-11 -1.49506e-11 7.53071e-11) (-1.63293e-11 -1.49506e-11 7.53071e-11) (-1.63293e-11 -1.49506e-11 7.53071e-11)
1850          (-8.80286e-14 -1.57366e-12 -5.90587e-12) (-8.80286e-14 -1.57366e-12 -5.90587e-12) (-8.80286e-14 -1.57366e-12 -5.90587e-12) (-8.80286e-14 -1.57366e-12 -5.90587e-12) (-8.80286e-14 -1.57366e-12 -5.90587e-12) (-8.80286e-14 -1.57366e-12 -5.90587e-12) (8.94203e-12 6.03616e-14 -5.77065e-12) (8.94203e-12 6.03616e-14 -5.77065e-12) (8.94203e-12 6.03616e-14 -5.77065e-12) (8.94203e-12 6.03616e-14 -5.77065e-12) (8.94203e-12 6.03616e-14 -5.77065e-12)
1900          (2.98081e-13 1.38647e-11 1.075e-10) (2.98081e-13 1.38647e-11 1.075e-10) (2.98081e-13 1.38647e-11 1.075e-10) (2.98081e-13 1.38647e-11 1.075e-10) (2.98081e-13 1.38647e-11 1.075e-10) (2.98081e-13 1.38647e-11 1.075e-10) (-1.61219e-11 -1.51479e-11 3.27399e-10) (-1.61219e-11 -1.51479e-11 3.27399e-10) (-1.61219e-11 -1.51479e-11 3.27399e-10) (-1.61219e-11 -1.51479e-11 3.27399e-10) (-1.61219e-11 -1.51479e-11 3.27399e-10)
1950          (-2.23427e-13 1.48358e-11 -1.38152e-11) (-2.23427e-13 1.48358e-11 -1.38152e-11) (-2.23427e-13 1.48358e-11 -1.38152e-11) (-2.23427e-13 1.48358e-11 -1.38152e-11) (-2.23427e-13 1.48358e-11 -1.38152e-11) (-2.23427e-13 1.48358e-11 -1.38152e-11) (2.28558e-13 -3.19754e-13 6.45774e-11) (2.28558e-13 -3.19754e-13 6.45774e-11) (2.28558e-13 -3.19754e-13 6.45774e-11) (2.28558e-13 -3.19754e-13 6.45774e-11) (2.28558e-13 -3.19754e-13 6.45774e-11)
2000          (-1.45555e-12 1.0922e-13 7.8794e-11) (-1.45555e-12 1.0922e-13 7.8794e-11) (-1.45555e-12 1.0922e-13 7.8794e-11) (-1.45555e-12 1.0922e-13 7.8794e-11) (-1.45555e-12 1.0922e-13 7.8794e-11) (-1.45555e-12 1.0922e-13 7.8794e-11) (-1.52695e-14 8.11816e-15 1.77595e-10) (-1.52695e-14 8.11816e-15 1.77595e-10) (-1.52695e-14 8.11816e-15 1.77595e-10) (-1.52695e-14 8.11816e-15 1.77595e-10) (-1.52695e-14 8.11816e-15 1.77595e-10)
2050          (-2.39101e-11 -1.61685e-12 3.47464e-12) (-2.39101e-11 -1.61685e-12 3.47464e-12) (-2.39101e-11 -1.61685e-12 3.47464e-12) (-2.39101e-11 -1.61685e-12 3.47464e-12) (-2.39101e-11 -1.61685e-12 3.47464e-12) (-2.39101e-11 -1.61685e-12 3.47464e-12) (-1.12251e-12 5.93176e-12 -5.55881e-12) (-1.12251e-12 5.93176e-12 -5.55881e-12) (-1.12251e-12 5.93176e-12 -5.55881e-12) (-1.12251e-12 5.93176e-12 -5.55881e-12) (-1.12251e-12 5.93176e-12 -5.55881e-12)
2100          (1.37666e-13 -1.28054e-12 6.81489e-11) (1.37666e-13 -1.28054e-12 6.81489e-11) (1.37666e-13 -1.28054e-12 6.81489e-11) (1.37666e-13 -1.28054e-12 6.81489e-11) (1.37666e-13 -1.28054e-12 6.81489e-11) (1.37666e-13 -1.28054e-12 6.81489e-11) (2.16375e-13 -3.43521e-13 1.44175e-10) (2.16375e-13 -3.43521e-13 1.44175e-10) (2.16375e-13 -3.43521e-13 1.44175e-10) (2.16375e-13 -3.43521e-13 1.44175e-10) (2.16375e-13 -3.43521e-13 1.44175e-10)
2150          (2.24165e-11 -1.62309e-12 -3.08766e-12) (2.24165e-11 -1.62309e-12 -3.08766e-12) (2.24165e-11 -1.62309e-12 -3.08766e-12) (2.24165e-11 -1.62309e-12 -3.08766e-12) (2.24165e-11 -1.62309e-12 -3.08766e-12) (2.24165e-11 -1.62309e-12 -3.08766e-12) (1.54095e-12 -3.00116e-11 2.93024e-11) (1.54095e-12 -3.00116e-11 2.93024e-11) (1.54095e-12 -3.00116e-11 2.93024e-11) (1.54095e-12 -3.00116e-11 2.93024e-11) (1.54095e-12 -3.00116e-11 2.93024e-11)
2200          (-7.52923e-12 6.15029e-12 -2.46212e-11) (-7.52923e-12 6.15029e-12 -2.46212e-11) (-7.52923e-12 6.15029e-12 -2.46212e-11) (-7.52923e-12 6.15029e-12 -2.46212e-11) (-7.52923e-12 6.15029e-12 -2.46212e-11) (-7.52923e-12 6.15029e-12 -2.46212e-11) (-6.03597e-12 -7.60672e-12 -4.21102e-11) (-6.03597e-12 -7.60672e-12 -4.21102e-11) (-6.03597e-12 -7.60672e-12 -4.21102e-11) (-6.03597e-12 -7.60672e-12 -4.21102e-11) (-6.03597e-12 -7.60672e-12 -4.21102e-11)
2250          (1.39571e-12 -6.32938e-13 2.12115e-11) (1.39571e-12 -6.32938e-13 2.12115e-11) (1.39571e-12 -6.32938e-13 2.12115e-11) (1.39571e-12 -6.32938e-13 2.12115e-11) (1.39571e-12 -6.32938e-13 2.12115e-11) (1.39571e-12 -6.32938e-13 2.12115e-11) (-8.9579e-14 1.29228e-12 -3.95835e-12) (-8.9579e-14 1.29228e-12 -3.95835e-12) (-8.9579e-14 1.29228e-12 -3.95835e-12) (-8.9579e-14 1.29228e-12 -3.95835e-12) (-8.9579e-14 1.29228e-12 -3.95835e-12)
2300          (-3.4715e-15 -2.98578e-11 5.34911e-11) (-3.4715e-15 -2.98578e-11 5.34911e-11) (-3.4715e-15 -2.98578e-11 5.34911e-11) (-3.4715e-15 -2.98578e-11 5.34911e-11) (-3.4715e-15 -2.98578e-11 5.34911e-11) (-3.4715e-15 -2.98578e-11 5.34911e-11) (-1.4746e-11 -1.46973e-11 1.13064e-10) (-1.4746e-11 -1.46973e-11 1.13064e-10) (-1.4746e-11 -1.46973e-11 1.13064e-10) (-1.4746e-11 -1.46973e-11 1.13064e-10) (-1.4746e-11 -1.46973e-11 1.13064e-10)
2350          (-1.01658e-13 -1.17932e-13 8.63084e-11) (-1.01658e-13 -1.17932e-13 8.63084e-11) (-1.01658e-13 -1.17932e-13 8.63084e-11) (-1.01658e-13 -1.17932e-13 8.63084e-11) (-1.01658e-13 -1.17932e-13 8.63084e-11) (-1.01658e-13 -1.17932e-13 8.63084e-11) (-1.62293e-11 -2.85079e-13 1.77453e-10) (-1.62293e-11 -2.85079e-13 1.77453e-10) (-1.62293e-11 -2.85079e-13 1.77453e-10) (-1.62293e-11 -2.85079e-13 1.77453e-10) (-1.62293e-11 -2.85079e-13 1.77453e-10)
2400          (1.8043e-13 -1.27037e-14 2.92816e-11) (1.8043e-13 -1.27037e-14 2.92816e-11) (1.8043e-13 -1.27037e-14 2.92816e-11) (1.8043e-13 -1.27037e-14 2.92816e-11) (1.8043e-13 -1.27037e-14 2.92816e-11) (1.8043e-13 -1.27037e-14 2.92816e-11) (-5.61187e-15 4.47286e-14 1.04185e-10) (-5.61187e-15 4.47286e-14 1.04185e-10) (-5.61187e-15 4.47286e-14 1.04185e-10) (-5.61187e-15 4.47286e-14 1.04185e-10) (-5.61187e-15 4.47286e-14 1.04185e-10)
2450          (-1.18486e-13 8.1116e-14 -9.31928e-12) (-1.18486e-13 8.1116e-14 -9.31928e-12) (-1.18486e-13 8.1116e-14 -9.31928e-12) (-1.18486e-13 8.1116e-14 -9.31928e-12) (-1.18486e-13 8.1116e-14 -9.31928e-12) (-1.18486e-13 8.1116e-14 -9.31928e-12) (-1.50732e-11 1.63315e-11 3.33534e-11) (-1.50732e-11 1.63315e-11 3.33534e-11) (-1.50732e-11 1.63315e-11 3.33534e-11) (-1.50732e-11 1.63315e-11 3.33534e-11) (-1.50732e-11 1.63315e-11 3.33534e-11)
2500          (-1.43847e-12 1.49801e-11 -1.33745e-11) (-1.43847e-12 1.49801e-11 -1.33745e-11) (-1.43847e-12 1.49801e-11 -1.33745e-11) (-1.43847e-12 1.49801e-11 -1.33745e-11) (-1.43847e-12 1.49801e-11 -1.33745e-11) (-1.43847e-12 1.49801e-11 -1.33745e-11) (6.1755e-12 -1.44632e-12 -4.4625e-11) (6.1755e-12 -1.44632e-12 -4.4625e-11) (6.1755e-12 -1.44632e-12 -4.4625e-11) (6.1755e-12 -1.44632e-12 -4.4625e-11) (6.1755e-12 -1.44632e-12 -4.4625e-11)
2550          (1.37943e-13 1.20248e-12 1.37974e-10) (1.37943e-13 1.20248e-12 1.37974e-10) (1.37943e-13 1.20248e-12 1.37974e-10) (1.37943e-13 1.20248e-12 1.37974e-10) (1.37943e-13 1.20248e-12 1.37974e-10) (1.37943e-13 1.20248e-12 1.37974e-10) (1.52334e-11 -1.52062e-11 3.08744e-10) (1.52334e-11 -1.52062e-11 3.08744e-10) (1.52334e-11 -1.52062e-11 3.08744e-10) (1.52334e-11 -1.52062e-11 3.08744e-10) (1.52334e-11 -1.52062e-11 3.08744e-10)
2600          (1.6482e-11 -1.3364e-11 1.02162e-10) (1.6482e-11 -1.3364e-11 1.02162e-10) (1.6482e-11 -1.3364e-11 1.02162e-10) (1.6482e-11 -1.3364e-11 1.02162e-10) (1.6482e-11 -1.3364e-11 1.02162e-10) (1.6482e-11 -1.3364e-11 1.02162e-10) (-5.10643e-14 -1.50155e-11 2.35657e-10) (-5.10643e-14 -1.50155e-11 2.35657e-10) (-5.10643e-14 -1.50155e-11 2.35657e-10) (-5.10643e-14 -1.50155e-11 2.35657e-10) (-5.10643e-14 -1.50155e-11 2.35657e-10)
2650          (7.55118e-12 6.05277e-12 -1.94191e-12) (7.55118e-12 6.05277e-12 -1.94191e-12) (7.55118e-12 6.05277e-12 -1.94191e-12) (7.55118e-12 6.05277e-12 -1.94191e-12) (7.55118e-12 6.05277e-12 -1.94191e-12) (7.55118e-12 6.05277e-12 -1.94191e-12) (-1.30468e-12 -4.42223e-13 6.63758e-12) (-1.30468e-12 -4.42223e-13 6.63758e-12) (-1.30468e-12 -4.42223e-13 6.63758e-12) (-1.30468e-12 -4.42223e-13 6.63758e-12) (-1.30468e-12 -4.42223e-13 6.63758e-12)
2700          (-9.26399e-14 -5.9298e-13 -3.85037e-11) (-9.26399e-14 -5.9298e-13 -3.85037e-11) (-9.26399e-14 -5.9298e-13 -3.85037e-11) (-9.26399e-14 -5.9298e-13 -3.85037e-11) (-9.26399e-14 -5.9298e-13 -3.85037e-11) (-9.26399e-14 -5.9298e-13 -3.85037e-11) (9.94117e-14 -7.82041e-12 -5.20291e-11) (9.94117e-14 -7.82041e-12 -5.20291e-11) (9.94117e-14 -7.82041e-12 -5.20291e-11) (9.94117e-14 -7.82041e-12 -5.20291e-11) (9.94117e-14 -7.82041e-12 -5.20291e-11)
2750          (-5.78446e-15 -1.49105e-11 4.21919e-11) (-5.78446e-15 -1.49105e-11 4.21919e-11) (-5.78446e-15 -1.49105e-11 4.21919e-11) (-5.78446e-15 -1.49105e-11 4.21919e-11) (-5.78446e-15 -1.49105e-11 4.21919e-11) (-5.78446e-15 -1.49105e-11 4.21919e-11) (-7.27254e-12 -8.84081e-12 3.45582e-11) (-7.27254e-12 -8.84081e-12 3.45582e-11) (-7.27254e-12 -8.84081e-12 3.45582e-11) (-7.27254e-12 -8.84081e-12 3.45582e-11) (-7.27254e-12 -8.84081e-12 3.45582e-11)
2800          (1.49185e-11 -2.10458e-11 5.31396e-12) (1.49185e-11 -2.10458e-11 5.31396e-12) (1.49185e-11 -2.10458e-11 5.31396e-12) (1.49185e-11 -2.10458e-11 5.31396e-12) (1.49185e-11 -2.10458e-11 5.31396e-12) (1.49185e-11 -2.10458e-11 5.31396e-12) (3.13764e-14 -1.25224e-13 4.61107e-12) (3.13764e-14 -1.25224e-13 4.61107e-12) (3.13764e-14 -1.25224e-13 4.61107e-12) (3.13764e-14 -1.25224e-13 4.61107e-12) (3.13764e-14 -1.25224e-13 4.61107e-12)
2850          (2.10869e-13 -1.31909e-12 2.90152e-11) (2.10869e-13 -1.31909e-12 2.90152e-11) (2.10869e-13 -1.31909e-12 2.90152e-11) (2.10869e-13 -1.31909e-12 2.90152e-11) (2.10869e-13 -1.31909e-12 2.90152e-11) (2.10869e-13 -1.31909e-12 2.90152e-11) (-1.49865e-12 1.4247e-12 7.82555e-11) (-1.49865e-12 1.4247e-12 7.82555e-11) (-1.49865e-12 1.4247e-12 7.82555e-11) (-1.49865e-12 1.4247e-12 7.82555e-11) (-1.49865e-12 1.4247e-12 7.82555e-11)
2900          (-7.47158e-12 1.51337e-14 -3.65646e-11) (-7.47158e-12 1.51337e-14 -3.65646e-11) (-7.47158e-12 1.51337e-14 -3.65646e-11) (-7.47158e-12 1.51337e-14 -3.65646e-11) (-7.47158e-12 1.51337e-14 -3.65646e-11) (-7.47158e-12 1.51337e-14 -3.65646e-11) (-1.43737e-11 -9.69071e-14 -7.61793e-11) (-1.43737e-11 -9.69071e-14 -7.61793e-11) (-1.43737e-11 -9.69071e-14 -7.61793e-11) (-1.43737e-11 -9.69071e-14 -7.61793e-11) (-1.43737e-11 -9.69071e-14 -7.61793e-11)
2950          (7.47788e-16 1.4629e-12 6.34206e-11) (7.47788e-16 1.4629e-12 6.34206e-11) (7.47788e-16 1.4629e-12 6.34206e-11) (7.47788e-16 1.4629e-12 6.34206e-11) (7.47788e-16 1.4629e-12 6.34206e-11) (7.47788e-16 1.4629e-12 6.34206e-11) (1.30524e-13 1.33588e-11 2.0783e-10) (1.30524e-13 1.33588e-11 2.0783e-10) (1.30524e-13 1.33588e-11 2.0783e-10) (1.30524e-13 1.33588e-11 2.0783e-10) (1.30524e-13 1.33588e-11 2.0783e-10)
3000          (-1.39309e-13 1.43252e-11 2.19278e-11) (-1.39309e-13 1.43252e-11 2.19278e-11) (-1.39309e-13 1.43252e-11 2.19278e-11) (-1.39309e-13 1.43252e-11 2.19278e-11) (-1.39309e-13 1.43252e-11 2.19278e-11) (-1.39309e-13 1.43252e-11 2.19278e-11) (-1.60585e-13 -2.71546e-13 3.91023e-11) (-1.60585e-13 -2.71546e-13 3.91023e-11) (-1.60585e-13 -2.71546e-13 3.91023e-11) (-1.60585e-13 -2.71546e-13 3.91023e-11) (-1.60585e-13 -2.71546e-13 3.91023e-11)
3050          (-1.49299e-11 3.54638e-14 3.11791e-11) (-1.49299e-11 3.54638e-14 3.11791e-11) (-1.49299e-11 3.54638e-14 3.11791e-11) (-1.49299e-11 3.54638e-14 3.11791e-11) (-1.49299e-11 3.54638e-14 3.11791e-11) (-1.49299e-11 3.54638e-14 3.11791e-11) (1.36062e-13 5.1492e-14 7.00964e-11) (1.36062e-13 5.1492e-14 7.00964e-11) (1.36062e-13 5.1492e-14 7.00964e-11) (1.36062e-13 5.1492e-14 7.00964e-11) (1.36062e-13 5.1492e-14 7.00964e-11)
3100          (-1.03695e-13 2.37962e-13 -6.27301e-12) (-1.03695e-13 2.37962e-13 -6.27301e-12) (-1.03695e-13 2.37962e-13 -6.27301e-12) (-1.03695e-13 2.37962e-13 -6.27301e-12) (-1.03695e-13 2.37962e-13 -6.27301e-12) (-1.03695e-13 2.37962e-13 -6.27301e-12) (-1.65591e-11 -1.67662e-12 3.10882e-11) (-1.65591e-11 -1.67662e-12 3.10882e-11) (-1.65591e-11 -1.67662e-12 3.10882e-11) (-1.65591e-11 -1.67662e-12 3.10882e-11) (-1.65591e-11 -1.67662e-12 3.10882e-11)
3150          (-1.47796e-11 1.49095e-11 1.40514e-11) (-1.47796e-11 1.49095e-11 1.40514e-11) (-1.47796e-11 1.49095e-11 1.40514e-11) (-1.47796e-11 1.49095e-11 1.40514e-11) (-1.47796e-11 1.49095e-11 1.40514e-11) (-1.47796e-11 1.49095e-11 1.40514e-11) (1.66258e-11 -1.34638e-12 8.25104e-11) (1.66258e-11 -1.34638e-12 8.25104e-11) (1.66258e-11 -1.34638e-12 8.25104e-11) (1.66258e-11 -1.34638e-12 8.25104e-11) (1.66258e-11 -1.34638e-12 8.25104e-11)
3200          (1.84346e-12 -7.66193e-15 4.1235e-11) (1.84346e-12 -7.66193e-15 4.1235e-11) (1.84346e-12 -7.66193e-15 4.1235e-11) (1.84346e-12 -7.66193e-15 4.1235e-11) (1.84346e-12 -7.66193e-15 4.1235e-11) (1.84346e-12 -7.66193e-15 4.1235e-11) (-1.51638e-11 -1.50743e-11 1.09202e-10) (-1.51638e-11 -1.50743e-11 1.09202e-10) (-1.51638e-11 -1.50743e-11 1.09202e-10) (-1.51638e-11 -1.50743e-11 1.09202e-10) (-1.51638e-11 -1.50743e-11 1.09202e-10)
3250          (2.33412e-14 -1.3328e-11 4.13184e-11) (2.33412e-14 -1.3328e-11 4.13184e-11) (2.33412e-14 -1.3328e-11 4.13184e-11) (2.33412e-14 -1.3328e-11 4.13184e-11) (2.33412e-14 -1.3328e-11 4.13184e-11) (2.33412e-14 -1.3328e-11 4.13184e-11) (-1.17262e-11 1.61979e-11 1.22778e-10) (-1.17262e-11 1.61979e-11 1.22778e-10) (-1.17262e-11 1.61979e-11 1.22778e-10) (-1.17262e-11 1.61979e-11 1.22778e-10) (-1.17262e-11 1.61979e-11 1.22778e-10)
3300          (1.12199e-13 1.02434e-13 4.48734e-11) (1.12199e-13 1.02434e-13 4.48734e-11) (1.12199e-13 1.02434e-13 4.48734e-11) (1.12199e-13 1.02434e-13 4.48734e-11) (1.12199e-13 1.02434e-13 4.48734e-11) (1.12199e-13 1.02434e-13 4.48734e-11) (-1.50661e-11 -1.58395e-12 2.25635e-10) (-1.50661e-11 -1.58395e-12 2.25635e-10) (-1.50661e-11 -1.58395e-12 2.25635e-10) (-1.50661e-11 -1.58395e-12 2.25635e-10) (-1.50661e-11 -1.58395e-12 2.25635e-10)