# Probe 0 (0.0015 0.0015 0)
# Probe 1 (0.0015 0.0015 0.002)
# Probe 2 (0.0015 0.0015 0.004)
# Probe 3 (0.0015 0.0015 0.006)
# Probe 4 (0.0015 0.0015 0.008)
# Probe 5 (0.0015 0.0015 0.01)
# Probe 6 (0.0015 0.0015 0.012)
# Probe 7 (0.0015 0.0015 0.014)
# Probe 8 (0.0015 0.0015 0.016)
# Probe 9 (0.0015 0.0015 0.018)
# Probe 10 (0.0015 0.0015 0.02)
# Time        0             1             2             3             4             5             6             7             8             9             10           
50            0.00058908    0.00058908    0.00058908    0.00058908    0.00058908    0.00058908    0.00058908    0.00058908    0.00058908    0.00058908    0.00058908   
100           0.00058908    0.00058908    0.00058908    0.00058908    0.00058908    0.00058908    0.00058908    0.00058908    0.00058908    0.00058908    0.00058908   
150           0.00058908    0.00058908    0.00058908    0.00058908    0.00058908    0.00058908    0.00058908    0.00058908    0.00058908    0.00058908    0.00058908   
200           0.00058908    0.00058908    0.00058908    0.00058908    0.00058908    0.00058908    0.00058908    0.00058908    0.00058908    0.00058908    0.00058908   
250           0.00058908    0.00058908    0.00058908    0.00058908    0.00058908    0.00058908    0.00058908    0.00058908    0.00058908    0.00058908    0.00058908   
300           0.00058908    0.00058908    0.00058908    0.00058908    0.00058908    0.00058908    0.00058908    0.00058908    0.00058908    0.00058908    0.00058908   
350           0.00058908    0.00058908    0.00058908    0.00058908    0.00058908    0.00058908    0.00058908    0.00058908    0.00058908    0.00058908    0.00058908   
400           0.00058908    0.00058908    0.00058908    0.00058908    0.00058908    0.00058908    0.00058908    0.00058908    0.00058908    0.00058908    0.00058908   
450           0.00058908    0.00058908    0.00058908    0.00058908    0.00058908    0.00058908    0.00058908    0.00058908    0.00058908    0.00058908    0.00058908   
500           0.00058908    0.00058908    0.00058908    0.00058908    0.00058908    0.00058908    0.00058908    0.00058908    0.00058908    0.00058908    0.00058908   
550           0.00058908    0.00058908    0.00058908    0.00058908    0.00058908    0.00058908    0.00058908    0.00058908    0.00058908    0.00058908    0.00058908   
600           0.00058908    0.00058908    0.00058908    0.00058908    0.00058908    0.00058908    0.00058908    0.00058908    0.00058908    0.00058908    0.00058908   
650           0.00058908    0.00058908    0.00058908    0.00058908    0.00058908    0.00058908    0.00058908    0.00058908    0.00058908    0.00058908    0.00058908   
700           0.00058908    0.00058908    0.00058908    0.00058908    0.00058908    0.00058908    0.00058908    0.00058908    0.00058908    0.00058908    0.00058908   
750           0.00058908    0.00058908    0.00058908    0.00058908    0.00058908    0.00058908    0.00058908    0.00058908    0.00058908    0.00058908    0.00058908   
800           0.00058908    0.00058908    0.00058908    0.00058908    0.00058908    0.00058908    0.00058908    0.00058908    0.00058908    0.00058908    0.00058908   
850           0.00058908    0.00058908    0.00058908    0.00058908    0.00058908    0.00058908    0.00058908    0.00058908    0.00058908    0.00058908    0.00058908   
900           0.00058908    0.00058908    0.00058908    0.00058908    0.00058908    0.00058908    0.00058908    0.00058908    0.00058908    0.00058908    0.00058908   
950           0.00058908    0.00058908    0.00058908    0.00058908    0.00058908    0.00058908    0.00058908    0.00058908    0.00058908    0.00058908    0.00058908   
1000          0.00058908    0.00058908    0.00058908    0.00058908    0.00058908    0.00058908    0.00058908    0.00058908    0.00058908    0.00058908    0.00058908   
1050          0.00058908    0.00058908    0.00058908    0.00058908    0.00058908    0.00058908    0.00058908    0.00058908    0.00058908    0.00058908    0.00058908   
1100          0.00058908    0.00058908    0.00058908    0.00058908    0.00058908    0.00058908    0.00058908    0.00058908    0.00058908    0.00058908    0.00058908   
1150          0.00058908    0.00058908    0.00058908    0.00058908    0.00058908    0.00058908    0.00058908    0.00058908    0.00058908    0.00058908    0.00058908   
1200          0.00058908    0.00058908    0.00058908    0.00058908    0.00058908    0.00058908    0.00058908    0.00058908    0.00058908    0.00058908    0.00058908   
1250          0.00058908    0.00058908    0.00058908    0.00058908    0.00058908    0.00058908    0.00058908    0.00058908    0.00058908    0.00058908    0.00058908   
1300          0.00058908    0.00058908    0.00058908    0.00058908    0.00058908    0.00058908    0.00058908    0.00058908    0.00058908    0.00058908    0.00058908   
1350          0.00058908    0.00058908    0.00058908    0.00058908    0.00058908    0.00058908    0.00058908    0.00058908    0.00058908    0.00058908    0.00058908   
1400          0.00058908    0.00058908    0.00058908    0.00058908    0.00058908    0.00058908    0.00058908    0.00058908    0.00058908    0.00058908    0.00058908   
1450          0.00058908    0.00058908    0.00058908    0.00058908    0.00058908    0.00058908    0.00058908    0.00058908    0.00058908    0.00058908    0.00058908   
1500          0.00058908    0.00058908    0.00058908    0.00058908    0.00058908    0.00058908    0.00058908    0.00058908    0.00058908    0.00058908    0.00058908   
1550          0.00058908    0.00058908    0.00058908    0.00058908    0.00058908    0.00058908    0.00058908    0.00058908    0.00058908    0.00058908    0.00058908   
1600          0.00058908    0.00058908    0.00058908    0.00058908    0.00058908    0.00058908    0.00058908    0.00058908    0.00058908    0.00058908    0.00058908   
1650          0.00058908    0.00058908    0.00058908    0.00058908    0.00058908    0.00058908    0.00058908    0.00058908    0.00058908    0.00058908    0.00058908   
1700          0.00058908    0.00058908    0.00058908    0.00058908    0.00058908    0.00058908    0.00058908    0.00058908    0.00058908    0.00058908    0.00058908   
1750          0.00058908    0.00058908    0.00058908    0.00058908    0.00058908    0.00058908    0.00058908    0.00058908    0.00058908    0.00058908    0.00058908   
1800          0.00058908    0.00058908    0.00058908    0.00058908    0.00058908    0.00058908    0.00058908    0.00058908    0.00058908    0.00058908    0.00058908   
1850          0.00058908    0.00058908    0.00058908    0.00058908    0.00058908    0.00058908    0.00058908    0.00058908    0.00058908    0.00058908    0.00058908   
1900          0.00058908    0.00058908    0.00058908    0.00058908    0.00058908    0.00058908    0.00058908    0.00058908    0.00058908    0.00058908    0.00058908   
1950          0.00058908    0.00058908    0.00058908    0.00058908    0.00058908    0.00058908    0.00058908    0.00058908    0.00058908    0.00058908    0.00058908   
2000          0.00058908    0.00058908    0.00058908    0.00058908    0.00058908    0.00058908    0.00058908    0.00058908    0.00058908    0.00058908    0.00058908   
2050          0.00058908    0.00058908    0.00058908    0.00058908    0.00058908    0.00058908    0.00058908    0.00058908    0.00058908    0.00058908    0.00058908   
2100          0.00058908    0.00058908    0.00058908    0.00058908    0.00058908    0.00058908    0.00058908    0.00058908    0.00058908    0.00058908    0.00058908   
2150          0.00058908    0.00058908    0.00058908    0.00058908    0.00058908    0.00058908    0.00058908    0.00058908    0.00058908    0.00058908    0.00058908   
2200          0.00058908    0.00058908    0.00058908    0.00058908    0.00058908    0.00058908    0.00058908    0.00058908    0.00058908    0.00058908    0.00058908   
2250          0.00058908    0.00058908    0.00058908    0.00058908    0.00058908    0.00058908    0.00058908    0.00058908    0.00058908    0.00058908    0.00058908   
2300          0.00058908    0.00058908    0.00058908    0.00058908    0.00058908    0.00058908    0.00058908    0.00058908    0.00058908    0.00058908    0.00058908   
2350          0.00058908    0.00058908    0.00058908    0.00058908    0.00058908    0.00058908    0.00058908    0.00058908    0.00058908    0.00058908    0.00058908   
2400          0.00058908    0.00058908    0.00058908    0.00058908    0.00058908    0.00058908    0.00058908    0.00058908    0.00058908    0.00058908    0.00058908   
2450          0.00058908    0.00058908    0.00058908    0.00058908    0.00058908    0.00058908    0.00058908    0.00058908    0.00058908    0.00058908    0.00058908   
2500          0.00058908    0.00058908    0.00058908    0.00058908    0.00058908    0.00058908    0.00058908    0.00058908    0.00058908    0.00058908    0.00058908   
2550          0.00058908    0.00058908    0.00058908    0.00058908    0.00058908    0.00058908    0.00058908    0.00058908    0.00058908    0.00058908    0.00058908   
2600          0.00058908    0.00058908    0.00058908    0.00058908    0.00058908    0.00058908    0.00058908    0.00058908    0.00058908    0.00058908    0.00058908   
2650          0.00058908    0.00058908    0.00058908    0.00058908    0.00058908    0.00058908    0.00058908    0.00058908    0.00058908    0.00058908    0.00058908   
2700          0.00058908    0.00058908    0.00058908    0.00058908    0.00058908    0.00058908    0.00058908    0.00058908    0.00058908    0.00058908    0.00058908   
2750          0.00058908    0.00058908    0.00058908    0.00058908    0.00058908    0.00058908    0.00058908    0.00058908    0.00058908    0.00058908    0.00058908   
2800          0.00058908    0.00058908    0.00058908    0.00058908    0.00058908    0.00058908    0.00058908    0.00058908    0.00058908    0.00058908    0.00058908   
2850          0.00058908    0.00058908    0.00058908    0.00058908    0.00058908    0.00058908    0.00058908    0.00058908    0.00058908    0.00058908    0.00058908   
2900          0.00058908    0.00058908    0.00058908    0.00058908    0.00058908    0.00058908    0.00058908    0.00058908    0.00058908    0.00058908    0.00058908   
2950          0.00058908    0.00058908    0.00058908    0.00058908    0.00058908    0.00058908    0.00058908    0.00058908    0.00058908    0.00058908    0.00058908   
3000          0.00058908    0.00058908    0.00058908    0.00058908    0.00058908    0.00058908    0.00058908    0.00058908    0.00058908    0.00058908    0.00058908   
3050          0.00058908    0.00058908    0.00058908    0.00058908    0.00058908    0.00058908    0.00058908    0.00058908    0.00058908    0.00058908    0.00058908   
3100          0.00058908    0.00058908    0.00058908    0.00058908    0.00058908    0.00058908    0.00058908    0.00058908    0.00058908    0.00058908    0.00058908   
3150          0.00058908    0.00058908    0.00058908    0.00058908    0.00058908    0.00058908    0.00058908    0.00058908    0.00058908    0.00058908    0.00058908   
3200          0.00058908    0.00058908    0.00058908    0.00058908    0.00058908    0.00058908    0.00058908    0.00058908    0.00058908    0.00058908    0.00058908   
3250          0.00058908    0.00058908    0.00058908    0.00058908    0.00058908    0.00058908    0.00058908    0.00058908    0.00058908    0.00058908    0.00058908   
3300          0.00058908    0.00058908    0.00058908    0.00058908    0.00058908    0.00058908    0.00058908    0.00058908    0.00058908    0.00058908    0.00058908   
3350          0.00058908    0.00058908    0.00058908    0.00058908    0.00058908    0.00058908    0.00058908    0.00058908    0.00058908    0.00058908    0.00058908   
3400          0.00058908    0.00058908    0.00058908    0.00058908    0.00058908    0.00058908    0.00058908    0.00058908    0.00058908    0.00058908    0.00058908   
3450          0.00058908    0.00058908    0.00058908    0.00058908    0.00058908    0.00058908    0.00058908    0.00058908    0.00058908    0.00058908    0.00058908   
3500          0.00058908    0.00058908    0.00058908    0.00058908    0.00058908    0.00058908    0.00058908    0.00058908    0.00058908    0.00058908    0.00058908   
3550          0.00058908    0.00058908    0.00058908    0.00058908    0.00058908    0.00058908    0.00058908    0.00058908    0.00058908    0.00058908    0.00058908   
3600          0.00058908    0.00058908    0.00058908    0.00058908    0.00058908    0.00058908    0.00058908    0.00058908    0.00058908    0.00058908    0.00058908   
3650          0.00058908    0.00058908    0.00058908    0.00058908    0.00058908    0.00058908    0.00058908    0.00058908    0.00058908    0.00058908    0.00058908   
3700          0.00058908    0.00058908    0.00058908    0.00058908    0.00058908    0.00058908    0.00058908    0.00058908    0.00058908    0.00058908    0.00058908   
3750          0.00058908    0.00058908    0.00058908    0.00058908    0.00058908    0.00058908    0.00058908    0.00058908    0.00058908    0.00058908    0.00058908   
3800          0.00058908    0.00058908    0.00058908    0.00058908    0.00058908    0.00058908    0.00058908    0.00058908    0.00058908    0.00058908    0.00058908   
3850          0.00058908    0.00058908    0.00058908    0.00058908    0.00058908    0.00058908    0.00058908    0.00058908    0.00058908    0.00058908    0.00058908   
3900          0.00058908    0.00058908    0.00058908    0.00058908    0.00058908    0.00058908    0.00058908    0.00058908    0.00058908    0.00058908    0.00058908   
3950          0.00058908    0.00058908    0.00058908    0.00058908    0.00058908    0.00058908    0.00058908    0.00058908    0.00058908    0.00058908    0.00058908   
4000          0.00058908    0.00058908    0.00058908    0.00058908    0.00058908    0.00058908    0.00058908    0.00058908    0.00058908    0.00058908    0.00058908   
4050          0.00058908    0.00058908    0.00058908    0.00058908    0.00058908    0.00058908    0.00058908    0.00058908    0.00058908    0.00058908    0.00058908   
4100          0.00058908    0.00058908    0.00058908    0.00058908    0.00058908    0.00058908    0.00058908    0.00058908    0.00058908    0.00058908    0.00058908   
4150          0.00058908    0.00058908    0.00058908    0.00058908    0.00058908    0.00058908    0.00058908    0.00058908    0.00058908    0.00058908    0.00058908   
4200          0.00058908    0.00058908    0.00058908    0.00058908    0.00058908    0.00058908    0.00058908    0.00058908    0.00058908    0.00058908    0.00058908   
4250          0.00058908    0.00058908    0.00058908    0.00058908    0.00058908    0.00058908    0.00058908    0.00058908    0.00058908    0.00058908    0.00058908   
4300          0.00058908    0.00058908    0.00058908    0.00058908    0.00058908    0.00058908    0.00058908    0.00058908    0.00058908    0.00058908    0.00058908   
4350          0.00058908    0.00058908    0.00058908    0.00058908    0.00058908    0.00058908    0.00058908    0.00058908    0.00058908    0.00058908    0.00058908   
4400          0.00058908    0.00058908    0.00058908    0.00058908    0.00058908    0.00058908    0.00058908    0.00058908    0.00058908    0.00058908    0.00058908   
4450          0.00058908    0.00058908    0.00058908    0.00058908    0.00058908    0.00058908    0.00058908    0.00058908    0.00058908    0.00058908    0.00058908   
4500          0.00058908    0.00058908    0.00058908    0.00058908    0.00058908    0.00058908    0.00058908    0.00058908    0.00058908    0.00058908    0.00058908   
4550          0.00058908    0.00058908    0.00058908    0.00058908    0.00058908    0.00058908    0.00058908    0.00058908    0.00058908    0.00058908    0.00058908   
4600          0.00058908    0.00058908    0.00058908    0.00058908    0.00058908    0.00058908    0.00058908    0.00058908    0.00058908    0.00058908    0.00058908   
4650          0.00058908    0.00058908    0.00058908    0.00058908    0.00058908    0.00058908    0.00058908    0.00058908    0.00058908    0.00058908    0.00058908   
4700          0.00058908    0.00058908    0.00058908    0.00058908    0.00058908    0.00058908    0.00058908    0.00058908    0.00058908    0.00058908    0.00058908   
4750          0.00058908    0.00058908    0.00058908    0.00058908    0.00058908    0.00058908    0.00058908    0.00058908    0.00058908    0.00058908    0.00058908   
4800          0.00058908    0.00058908    0.00058908    0.00058908    0.00058908    0.00058908    0.00058908    0.00058908    0.00058908    0.00058908    0.00058908   
4850          0.00058908    0.00058908    0.00058908    0.00058908    0.00058908    0.00058908    0.00058908    0.00058908    0.00058908    0.00058908    0.00058908   
4900          0.00058908    0.00058908    0.00058908    0.00058908    0.00058908    0.00058908    0.00058908    0.00058908    0.00058908    0.00058908    0.00058908   
4950          0.00058908    0.00058908    0.00058908    0.00058908    0.00058908    0.00058908    0.00058908    0.00058908    0.00058908    0.00058908    0.00058908   
5000          0.00058908    0.00058908    0.00058908    0.00058908    0.00058908    0.00058908    0.00058908    0.00058908    0.00058908    0.00058908    0.00058908   
