# Probe 0 (0.0015 0.0015 0)
# Probe 1 (0.0015 0.0015 0.002)
# Probe 2 (0.0015 0.0015 0.004)
# Probe 3 (0.0015 0.0015 0.006)
# Probe 4 (0.0015 0.0015 0.008)
# Probe 5 (0.0015 0.0015 0.01)
# Probe 6 (0.0015 0.0015 0.012)
# Probe 7 (0.0015 0.0015 0.014)
# Probe 8 (0.0015 0.0015 0.016)
# Probe 9 (0.0015 0.0015 0.018)
# Probe 10 (0.0015 0.0015 0.02)
# Time        0             1             2             3             4             5             6             7             8             9             10           
50            (-1.77878e-20 -1.97822e-18 7.88345e-13) (-1.77878e-20 -1.97822e-18 7.88345e-13) (-1.77878e-20 -1.97822e-18 7.88345e-13) (-1.77878e-20 -1.97822e-18 7.88345e-13) (-1.77878e-20 -1.97822e-18 7.88345e-13) (-1.77878e-20 -1.97822e-18 7.88345e-13) (-1.77878e-20 -1.97822e-18 7.88345e-13) (-1.77878e-20 -1.97822e-18 7.88345e-13) (-1.77878e-20 -1.97822e-18 7.88345e-13) (-1.77878e-20 -1.97822e-18 7.88345e-13) (-1.77878e-20 -1.97822e-18 7.88345e-13)
100           (2.20024e-18 -1.99838e-18 9.38065e-14) (2.20024e-18 -1.99838e-18 9.38065e-14) (2.20024e-18 -1.99838e-18 9.38065e-14) (2.20024e-18 -1.99838e-18 9.38065e-14) (2.20024e-18 -1.99838e-18 9.38065e-14) (2.20024e-18 -1.99838e-18 9.38065e-14) (2.20024e-18 -1.99838e-18 9.38065e-14) (2.20024e-18 -1.99838e-18 9.38065e-14) (2.20024e-18 -1.99838e-18 9.38065e-14) (2.20024e-18 -1.99838e-18 9.38065e-14) (2.20024e-18 -1.99838e-18 9.38065e-14)
150           (2.21645e-23 1.9964e-20 1.11581e-14) (2.21645e-23 1.9964e-20 1.11581e-14) (2.21645e-23 1.9964e-20 1.11581e-14) (2.21645e-23 1.9964e-20 1.11581e-14) (2.21645e-23 1.9964e-20 1.11581e-14) (2.21645e-23 1.9964e-20 1.11581e-14) (2.21645e-23 1.9964e-20 1.11581e-14) (2.21645e-23 1.9964e-20 1.11581e-14) (2.21645e-23 1.9964e-20 1.11581e-14) (2.21645e-23 1.9964e-20 1.11581e-14) (2.21645e-23 1.9964e-20 1.11581e-14)
200           (2.01857e-20 -1.9984e-18 1.32367e-15) (2.01857e-20 -1.9984e-18 1.32367e-15) (2.01857e-20 -1.9984e-18 1.32367e-15) (2.01857e-20 -1.9984e-18 1.32367e-15) (2.01857e-20 -1.9984e-18 1.32367e-15) (2.01857e-20 -1.9984e-18 1.32367e-15) (2.01857e-20 -1.9984e-18 1.32367e-15) (2.01857e-20 -1.9984e-18 1.32367e-15) (2.01857e-20 -1.9984e-18 1.32367e-15) (2.01857e-20 -1.9984e-18 1.32367e-15) (2.01857e-20 -1.9984e-18 1.32367e-15)
250           (-7.12313e-17 -1.31173e-17 -1.86645e-13) (-7.12313e-17 -1.31173e-17 -1.86645e-13) (-7.12313e-17 -1.31173e-17 -1.86645e-13) (-7.12313e-17 -1.31173e-17 -1.86645e-13) (-7.12313e-17 -1.31173e-17 -1.86645e-13) (-7.12313e-17 -1.31173e-17 -1.86645e-13) (-7.12313e-17 -1.31173e-17 -1.86645e-13) (-7.12313e-17 -1.31173e-17 -1.86645e-13) (-7.12313e-17 -1.31173e-17 -1.86645e-13) (-7.12313e-17 -1.31173e-17 -1.86645e-13) (-7.12313e-17 -1.31173e-17 -1.86645e-13)
300           (-8.99183e-20 1.00129e-18 -4.46001e-13) (-8.99183e-20 1.00129e-18 -4.46001e-13) (-8.99183e-20 1.00129e-18 -4.46001e-13) (-8.99183e-20 1.00129e-18 -4.46001e-13) (-8.99183e-20 1.00129e-18 -4.46001e-13) (-8.99183e-20 1.00129e-18 -4.46001e-13) (-8.99183e-20 1.00129e-18 -4.46001e-13) (-8.99183e-20 1.00129e-18 -4.46001e-13) (-8.99183e-20 1.00129e-18 -4.46001e-13) (-8.99183e-20 1.00129e-18 -4.46001e-13) (-8.99183e-20 1.00129e-18 -4.46001e-13)
350           (2.01927e-18 1.90748e-18 -5.3083e-14) (2.01927e-18 1.90748e-18 -5.3083e-14) (2.01927e-18 1.90748e-18 -5.3083e-14) (2.01927e-18 1.90748e-18 -5.3083e-14) (2.01927e-18 1.90748e-18 -5.3083e-14) (2.01927e-18 1.90748e-18 -5.3083e-14) (2.01927e-18 1.90748e-18 -5.3083e-14) (2.01927e-18 1.90748e-18 -5.3083e-14) (2.01927e-18 1.90748e-18 -5.3083e-14) (2.01927e-18 1.90748e-18 -5.3083e-14) (2.01927e-18 1.90748e-18 -5.3083e-14)
400           (-1.01718e-19 -8.89079e-19 -6.31914e-15) (-1.01718e-19 -8.89079e-19 -6.31914e-15) (-1.01718e-19 -8.89079e-19 -6.31914e-15) (-1.01718e-19 -8.89079e-19 -6.31914e-15) (-1.01718e-19 -8.89079e-19 -6.31914e-15) (-1.01718e-19 -8.89079e-19 -6.31914e-15) (-1.01718e-19 -8.89079e-19 -6.31914e-15) (-1.01718e-19 -8.89079e-19 -6.31914e-15) (-1.01718e-19 -8.89079e-19 -6.31914e-15) (-1.01718e-19 -8.89079e-19 -6.31914e-15) (-1.01718e-19 -8.89079e-19 -6.31914e-15)
450           (-2.02746e-19 -9.0029e-22 -7.61885e-16) (-2.02746e-19 -9.0029e-22 -7.61885e-16) (-2.02746e-19 -9.0029e-22 -7.61885e-16) (-2.02746e-19 -9.0029e-22 -7.61885e-16) (-2.02746e-19 -9.0029e-22 -7.61885e-16) (-2.02746e-19 -9.0029e-22 -7.61885e-16) (-2.02746e-19 -9.0029e-22 -7.61885e-16) (-2.02746e-19 -9.0029e-22 -7.61885e-16) (-2.02746e-19 -9.0029e-22 -7.61885e-16) (-2.02746e-19 -9.0029e-22 -7.61885e-16) (-2.02746e-19 -9.0029e-22 -7.61885e-16)
500           (2.24043e-18 2.00044e-18 1.65945e-12) (2.24043e-18 2.00044e-18 1.65945e-12) (2.24043e-18 2.00044e-18 1.65945e-12) (2.24043e-18 2.00044e-18 1.65945e-12) (2.24043e-18 2.00044e-18 1.65945e-12) (2.24043e-18 2.00044e-18 1.65945e-12) (2.24043e-18 2.00044e-18 1.65945e-12) (2.24043e-18 2.00044e-18 1.65945e-12) (2.24043e-18 2.00044e-18 1.65945e-12) (2.24043e-18 2.00044e-18 1.65945e-12) (2.24043e-18 2.00044e-18 1.65945e-12)
550           (1.79654e-19 -1.9984e-18 2.0428e-13) (1.79654e-19 -1.9984e-18 2.0428e-13) (1.79654e-19 -1.9984e-18 2.0428e-13) (1.79654e-19 -1.9984e-18 2.0428e-13) (1.79654e-19 -1.9984e-18 2.0428e-13) (1.79654e-19 -1.9984e-18 2.0428e-13) (1.79654e-19 -1.9984e-18 2.0428e-13) (1.79654e-19 -1.9984e-18 2.0428e-13) (1.79654e-19 -1.9984e-18 2.0428e-13) (1.79654e-19 -1.9984e-18 2.0428e-13) (1.79654e-19 -1.9984e-18 2.0428e-13)
600           (1.99862e-18 -2.20044e-18 2.43013e-14) (1.99862e-18 -2.20044e-18 2.43013e-14) (1.99862e-18 -2.20044e-18 2.43013e-14) (1.99862e-18 -2.20044e-18 2.43013e-14) (1.99862e-18 -2.20044e-18 2.43013e-14) (1.99862e-18 -2.20044e-18 2.43013e-14) (1.99862e-18 -2.20044e-18 2.43013e-14) (1.99862e-18 -2.20044e-18 2.43013e-14) (1.99862e-18 -2.20044e-18 2.43013e-14) (1.99862e-18 -2.20044e-18 2.43013e-14) (1.99862e-18 -2.20044e-18 2.43013e-14)
650           (2.00042e-21 2.01841e-22 2.8852e-15) (2.00042e-21 2.01841e-22 2.8852e-15) (2.00042e-21 2.01841e-22 2.8852e-15) (2.00042e-21 2.01841e-22 2.8852e-15) (2.00042e-21 2.01841e-22 2.8852e-15) (2.00042e-21 2.01841e-22 2.8852e-15) (2.00042e-21 2.01841e-22 2.8852e-15) (2.00042e-21 2.01841e-22 2.8852e-15) (2.00042e-21 2.01841e-22 2.8852e-15) (2.00042e-21 2.01841e-22 2.8852e-15) (2.00042e-21 2.01841e-22 2.8852e-15)
700           (-1.79859e-18 2.19826e-18 3.37383e-16) (-1.79859e-18 2.19826e-18 3.37383e-16) (-1.79859e-18 2.19826e-18 3.37383e-16) (-1.79859e-18 2.19826e-18 3.37383e-16) (-1.79859e-18 2.19826e-18 3.37383e-16) (-1.79859e-18 2.19826e-18 3.37383e-16) (-1.79859e-18 2.19826e-18 3.37383e-16) (-1.79859e-18 2.19826e-18 3.37383e-16) (-1.79859e-18 2.19826e-18 3.37383e-16) (-1.79859e-18 2.19826e-18 3.37383e-16) (-1.79859e-18 2.19826e-18 3.37383e-16)
750           (2.02047e-20 9.99102e-19 -1.69973e-12) (2.02047e-20 9.99102e-19 -1.69973e-12) (2.02047e-20 9.99102e-19 -1.69973e-12) (2.02047e-20 9.99102e-19 -1.69973e-12) (2.02047e-20 9.99102e-19 -1.69973e-12) (2.02047e-20 9.99102e-19 -1.69973e-12) (2.02047e-20 9.99102e-19 -1.69973e-12) (2.02047e-20 9.99102e-19 -1.69973e-12) (2.02047e-20 9.99102e-19 -1.69973e-12) (2.02047e-20 9.99102e-19 -1.69973e-12) (2.02047e-20 9.99102e-19 -1.69973e-12)
800           (1.79866e-18 -1.11102e-22 -2.0228e-13) (1.79866e-18 -1.11102e-22 -2.0228e-13) (1.79866e-18 -1.11102e-22 -2.0228e-13) (1.79866e-18 -1.11102e-22 -2.0228e-13) (1.79866e-18 -1.11102e-22 -2.0228e-13) (1.79866e-18 -1.11102e-22 -2.0228e-13) (1.79866e-18 -1.11102e-22 -2.0228e-13) (1.79866e-18 -1.11102e-22 -2.0228e-13) (1.79866e-18 -1.11102e-22 -2.0228e-13) (1.79866e-18 -1.11102e-22 -2.0228e-13) (1.79866e-18 -1.11102e-22 -2.0228e-13)
850           (1.00999e-19 1.09013e-18 -2.40764e-14) (1.00999e-19 1.09013e-18 -2.40764e-14) (1.00999e-19 1.09013e-18 -2.40764e-14) (1.00999e-19 1.09013e-18 -2.40764e-14) (1.00999e-19 1.09013e-18 -2.40764e-14) (1.00999e-19 1.09013e-18 -2.40764e-14) (1.00999e-19 1.09013e-18 -2.40764e-14) (1.00999e-19 1.09013e-18 -2.40764e-14) (1.00999e-19 1.09013e-18 -2.40764e-14) (1.00999e-19 1.09013e-18 -2.40764e-14) (1.00999e-19 1.09013e-18 -2.40764e-14)
900           (-9.79218e-19 -9.99211e-20 -2.87258e-15) (-9.79218e-19 -9.99211e-20 -2.87258e-15) (-9.79218e-19 -9.99211e-20 -2.87258e-15) (-9.79218e-19 -9.99211e-20 -2.87258e-15) (-9.79218e-19 -9.99211e-20 -2.87258e-15) (-9.79218e-19 -9.99211e-20 -2.87258e-15) (-9.79218e-19 -9.99211e-20 -2.87258e-15) (-9.79218e-19 -9.99211e-20 -2.87258e-15) (-9.79218e-19 -9.99211e-20 -2.87258e-15) (-9.79218e-19 -9.99211e-20 -2.87258e-15) (-9.79218e-19 -9.99211e-20 -2.87258e-15)
950           (2.0004e-19 9.87211e-21 -3.47986e-16) (2.0004e-19 9.87211e-21 -3.47986e-16) (2.0004e-19 9.87211e-21 -3.47986e-16) (2.0004e-19 9.87211e-21 -3.47986e-16) (2.0004e-19 9.87211e-21 -3.47986e-16) (2.0004e-19 9.87211e-21 -3.47986e-16) (2.0004e-19 9.87211e-21 -3.47986e-16) (2.0004e-19 9.87211e-21 -3.47986e-16) (2.0004e-19 9.87211e-21 -3.47986e-16) (2.0004e-19 9.87211e-21 -3.47986e-16) (2.0004e-19 9.87211e-21 -3.47986e-16)
1000          (-2.21223e-18 -1.9984e-19 4.27882e-12) (-2.21223e-18 -1.9984e-19 4.27882e-12) (-2.21223e-18 -1.9984e-19 4.27882e-12) (-2.21223e-18 -1.9984e-19 4.27882e-12) (-2.21223e-18 -1.9984e-19 4.27882e-12) (-2.21223e-18 -1.9984e-19 4.27882e-12) (-2.21223e-18 -1.9984e-19 4.27882e-12) (-2.21223e-18 -1.9984e-19 4.27882e-12) (-2.21223e-18 -1.9984e-19 4.27882e-12) (-2.21223e-18 -1.9984e-19 4.27882e-12) (-2.21223e-18 -1.9984e-19 4.27882e-12)
1050          (-2.0004e-18 -2.19824e-18 5.09175e-13) (-2.0004e-18 -2.19824e-18 5.09175e-13) (-2.0004e-18 -2.19824e-18 5.09175e-13) (-2.0004e-18 -2.19824e-18 5.09175e-13) (-2.0004e-18 -2.19824e-18 5.09175e-13) (-2.0004e-18 -2.19824e-18 5.09175e-13) (-2.0004e-18 -2.19824e-18 5.09175e-13) (-2.0004e-18 -2.19824e-18 5.09175e-13) (-2.0004e-18 -2.19824e-18 5.09175e-13) (-2.0004e-18 -2.19824e-18 5.09175e-13) (-2.0004e-18 -2.19824e-18 5.09175e-13)
1100          (2.01838e-20 -2.19633e-23 6.05846e-14) (2.01838e-20 -2.19633e-23 6.05846e-14) (2.01838e-20 -2.19633e-23 6.05846e-14) (2.01838e-20 -2.19633e-23 6.05846e-14) (2.01838e-20 -2.19633e-23 6.05846e-14) (2.01838e-20 -2.19633e-23 6.05846e-14) (2.01838e-20 -2.19633e-23 6.05846e-14) (2.01838e-20 -2.19633e-23 6.05846e-14) (2.01838e-20 -2.19633e-23 6.05846e-14) (2.01838e-20 -2.19633e-23 6.05846e-14) (2.01838e-20 -2.19633e-23 6.05846e-14)
1150          (1.82054e-19 -2.20024e-19 7.20738e-15) (1.82054e-19 -2.20024e-19 7.20738e-15) (1.82054e-19 -2.20024e-19 7.20738e-15) (1.82054e-19 -2.20024e-19 7.20738e-15) (1.82054e-19 -2.20024e-19 7.20738e-15) (1.82054e-19 -2.20024e-19 7.20738e-15) (1.82054e-19 -2.20024e-19 7.20738e-15) (1.82054e-19 -2.20024e-19 7.20738e-15) (1.82054e-19 -2.20024e-19 7.20738e-15) (1.82054e-19 -2.20024e-19 7.20738e-15) (1.82054e-19 -2.20024e-19 7.20738e-15)
1200          (-2.02058e-19 2.01819e-18 8.56829e-16) (-2.02058e-19 2.01819e-18 8.56829e-16) (-2.02058e-19 2.01819e-18 8.56829e-16) (-2.02058e-19 2.01819e-18 8.56829e-16) (-2.02058e-19 2.01819e-18 8.56829e-16) (-2.02058e-19 2.01819e-18 8.56829e-16) (-2.02058e-19 2.01819e-18 8.56829e-16) (-2.02058e-19 2.01819e-18 8.56829e-16) (-2.02058e-19 2.01819e-18 8.56829e-16) (-2.02058e-19 2.01819e-18 8.56829e-16) (-2.02058e-19 2.01819e-18 8.56829e-16)
1250          (-3.23186e-18 -2.30936e-19 -4.13347e-12) (-3.23186e-18 -2.30936e-19 -4.13347e-12) (-3.23186e-18 -2.30936e-19 -4.13347e-12) (-3.23186e-18 -2.30936e-19 -4.13347e-12) (-3.23186e-18 -2.30936e-19 -4.13347e-12) (-3.23186e-18 -2.30936e-19 -4.13347e-12) (-3.23186e-18 -2.30936e-19 -4.13347e-12) (-3.23186e-18 -2.30936e-19 -4.13347e-12) (-3.23186e-18 -2.30936e-19 -4.13347e-12) (-3.23186e-18 -2.30936e-19 -4.13347e-12) (-3.23186e-18 -2.30936e-19 -4.13347e-12)
1300          (-1.01021e-19 -1.12011e-21 -5.06433e-13) (-1.01021e-19 -1.12011e-21 -5.06433e-13) (-1.01021e-19 -1.12011e-21 -5.06433e-13) (-1.01021e-19 -1.12011e-21 -5.06433e-13) (-1.01021e-19 -1.12011e-21 -5.06433e-13) (-1.01021e-19 -1.12011e-21 -5.06433e-13) (-1.01021e-19 -1.12011e-21 -5.06433e-13) (-1.01021e-19 -1.12011e-21 -5.06433e-13) (-1.01021e-19 -1.12011e-21 -5.06433e-13) (-1.01021e-19 -1.12011e-21 -5.06433e-13) (-1.01021e-19 -1.12011e-21 -5.06433e-13)
1350          (1.08903e-18 1.89948e-22 -6.02699e-14) (1.08903e-18 1.89948e-22 -6.02699e-14) (1.08903e-18 1.89948e-22 -6.02699e-14) (1.08903e-18 1.89948e-22 -6.02699e-14) (1.08903e-18 1.89948e-22 -6.02699e-14) (1.08903e-18 1.89948e-22 -6.02699e-14) (1.08903e-18 1.89948e-22 -6.02699e-14) (1.08903e-18 1.89948e-22 -6.02699e-14) (1.08903e-18 1.89948e-22 -6.02699e-14) (1.08903e-18 1.89948e-22 -6.02699e-14) (1.08903e-18 1.89948e-22 -6.02699e-14)
1400          (1.01929e-18 -1.00012e-18 -7.18005e-15) (1.01929e-18 -1.00012e-18 -7.18005e-15) (1.01929e-18 -1.00012e-18 -7.18005e-15) (1.01929e-18 -1.00012e-18 -7.18005e-15) (1.01929e-18 -1.00012e-18 -7.18005e-15) (1.01929e-18 -1.00012e-18 -7.18005e-15) (1.01929e-18 -1.00012e-18 -7.18005e-15) (1.01929e-18 -1.00012e-18 -7.18005e-15) (1.01929e-18 -1.00012e-18 -7.18005e-15) (1.01929e-18 -1.00012e-18 -7.18005e-15) (1.01929e-18 -1.00012e-18 -7.18005e-15)
1450          (3.0098e-18 2.10741e-18 -8.65355e-16) (3.0098e-18 2.10741e-18 -8.65355e-16) (3.0098e-18 2.10741e-18 -8.65355e-16) (3.0098e-18 2.10741e-18 -8.65355e-16) (3.0098e-18 2.10741e-18 -8.65355e-16) (3.0098e-18 2.10741e-18 -8.65355e-16) (3.0098e-18 2.10741e-18 -8.65355e-16) (3.0098e-18 2.10741e-18 -8.65355e-16) (3.0098e-18 2.10741e-18 -8.65355e-16) (3.0098e-18 2.10741e-18 -8.65355e-16) (3.0098e-18 2.10741e-18 -8.65355e-16)
1500          (2.24485e-18 2.01839e-21 3.40114e-12) (2.24485e-18 2.01839e-21 3.40114e-12) (2.24485e-18 2.01839e-21 3.40114e-12) (2.24485e-18 2.01839e-21 3.40114e-12) (2.24485e-18 2.01839e-21 3.40114e-12) (2.24485e-18 2.01839e-21 3.40114e-12) (2.24485e-18 2.01839e-21 3.40114e-12) (2.24485e-18 2.01839e-21 3.40114e-12) (2.24485e-18 2.01839e-21 3.40114e-12) (2.24485e-18 2.01839e-21 3.40114e-12) (2.24485e-18 2.01839e-21 3.40114e-12)
1550          (2.01821e-19 -1.9964e-18 4.23681e-13) (2.01821e-19 -1.9964e-18 4.23681e-13) (2.01821e-19 -1.9964e-18 4.23681e-13) (2.01821e-19 -1.9964e-18 4.23681e-13) (2.01821e-19 -1.9964e-18 4.23681e-13) (2.01821e-19 -1.9964e-18 4.23681e-13) (2.01821e-19 -1.9964e-18 4.23681e-13) (2.01821e-19 -1.9964e-18 4.23681e-13) (2.01821e-19 -1.9964e-18 4.23681e-13) (2.01821e-19 -1.9964e-18 4.23681e-13) (2.01821e-19 -1.9964e-18 4.23681e-13)
1600          (2.00042e-21 -1.79835e-22 5.04095e-14) (2.00042e-21 -1.79835e-22 5.04095e-14) (2.00042e-21 -1.79835e-22 5.04095e-14) (2.00042e-21 -1.79835e-22 5.04095e-14) (2.00042e-21 -1.79835e-22 5.04095e-14) (2.00042e-21 -1.79835e-22 5.04095e-14) (2.00042e-21 -1.79835e-22 5.04095e-14) (2.00042e-21 -1.79835e-22 5.04095e-14) (2.00042e-21 -1.79835e-22 5.04095e-14) (2.00042e-21 -1.79835e-22 5.04095e-14) (2.00042e-21 -1.79835e-22 5.04095e-14)
1650          (-1.97622e-19 -1.79854e-21 5.99158e-15) (-1.97622e-19 -1.79854e-21 5.99158e-15) (-1.97622e-19 -1.79854e-21 5.99158e-15) (-1.97622e-19 -1.79854e-21 5.99158e-15) (-1.97622e-19 -1.79854e-21 5.99158e-15) (-1.97622e-19 -1.79854e-21 5.99158e-15) (-1.97622e-19 -1.79854e-21 5.99158e-15) (-1.97622e-19 -1.79854e-21 5.99158e-15) (-1.97622e-19 -1.79854e-21 5.99158e-15) (-1.97622e-19 -1.79854e-21 5.99158e-15) (-1.97622e-19 -1.79854e-21 5.99158e-15)
1700          (1.9986e-18 2.01841e-18 7.07461e-16) (1.9986e-18 2.01841e-18 7.07461e-16) (1.9986e-18 2.01841e-18 7.07461e-16) (1.9986e-18 2.01841e-18 7.07461e-16) (1.9986e-18 2.01841e-18 7.07461e-16) (1.9986e-18 2.01841e-18 7.07461e-16) (1.9986e-18 2.01841e-18 7.07461e-16) (1.9986e-18 2.01841e-18 7.07461e-16) (1.9986e-18 2.01841e-18 7.07461e-16) (1.9986e-18 2.01841e-18 7.07461e-16) (1.9986e-18 2.01841e-18 7.07461e-16)
1750          (-2.19824e-18 -2.23821e-18 1.16981e-13) (-2.19824e-18 -2.23821e-18 1.16981e-13) (-2.19824e-18 -2.23821e-18 1.16981e-13) (-2.19824e-18 -2.23821e-18 1.16981e-13) (-2.19824e-18 -2.23821e-18 1.16981e-13) (-2.19824e-18 -2.23821e-18 1.16981e-13) (-2.19824e-18 -2.23821e-18 1.16981e-13) (-2.19824e-18 -2.23821e-18 1.16981e-13) (-2.19824e-18 -2.23821e-18 1.16981e-13) (-2.19824e-18 -2.23821e-18 1.16981e-13) (-2.19824e-18 -2.23821e-18 1.16981e-13)
1800          (1.9984e-19 2.0004e-19 1.20669e-14) (1.9984e-19 2.0004e-19 1.20669e-14) (1.9984e-19 2.0004e-19 1.20669e-14) (1.9984e-19 2.0004e-19 1.20669e-14) (1.9984e-19 2.0004e-19 1.20669e-14) (1.9984e-19 2.0004e-19 1.20669e-14) (1.9984e-19 2.0004e-19 1.20669e-14) (1.9984e-19 2.0004e-19 1.20669e-14) (1.9984e-19 2.0004e-19 1.20669e-14) (1.9984e-19 2.0004e-19 1.20669e-14) (1.9984e-19 2.0004e-19 1.20669e-14)
1850          (2.19826e-18 2.01858e-19 1.4316e-15) (2.19826e-18 2.01858e-19 1.4316e-15) (2.19826e-18 2.01858e-19 1.4316e-15) (2.19826e-18 2.01858e-19 1.4316e-15) (2.19826e-18 2.01858e-19 1.4316e-15) (2.19826e-18 2.01858e-19 1.4316e-15) (2.19826e-18 2.01858e-19 1.4316e-15) (2.19826e-18 2.01858e-19 1.4316e-15) (2.19826e-18 2.01858e-19 1.4316e-15) (2.19826e-18 2.01858e-19 1.4316e-15) (2.19826e-18 2.01858e-19 1.4316e-15)
1900          (-2.14254e-16 -3.98454e-17 -1.09233e-12) (-2.14254e-16 -3.98454e-17 -1.09233e-12) (-2.14254e-16 -3.98454e-17 -1.09233e-12) (-2.14254e-16 -3.98454e-17 -1.09233e-12) (-2.14254e-16 -3.98454e-17 -1.09233e-12) (-2.14254e-16 -3.98454e-17 -1.09233e-12) (-2.14254e-16 -3.98454e-17 -1.09233e-12) (-2.14254e-16 -3.98454e-17 -1.09233e-12) (-2.14254e-16 -3.98454e-17 -1.09233e-12) (-2.14254e-16 -3.98454e-17 -1.09233e-12) (-2.14254e-16 -3.98454e-17 -1.09233e-12)
1950          (-1.19903e-18 -9.98203e-19 -1.38692e-12) (-1.19903e-18 -9.98203e-19 -1.38692e-12) (-1.19903e-18 -9.98203e-19 -1.38692e-12) (-1.19903e-18 -9.98203e-19 -1.38692e-12) (-1.19903e-18 -9.98203e-19 -1.38692e-12) (-1.19903e-18 -9.98203e-19 -1.38692e-12) (-1.19903e-18 -9.98203e-19 -1.38692e-12) (-1.19903e-18 -9.98203e-19 -1.38692e-12) (-1.19903e-18 -9.98203e-19 -1.38692e-12) (-1.19903e-18 -9.98203e-19 -1.38692e-12) (-1.19903e-18 -9.98203e-19 -1.38692e-12)
2000          (-1.09111e-18 9.11351e-19 -1.65046e-13) (-1.09111e-18 9.11351e-19 -1.65046e-13) (-1.09111e-18 9.11351e-19 -1.65046e-13) (-1.09111e-18 9.11351e-19 -1.65046e-13) (-1.09111e-18 9.11351e-19 -1.65046e-13) (-1.09111e-18 9.11351e-19 -1.65046e-13) (-1.09111e-18 9.11351e-19 -1.65046e-13) (-1.09111e-18 9.11351e-19 -1.65046e-13) (-1.09111e-18 9.11351e-19 -1.65046e-13) (-1.09111e-18 9.11351e-19 -1.65046e-13) (-1.09111e-18 9.11351e-19 -1.65046e-13)
2050          (9.09383e-19 3.00662e-19 -1.96464e-14) (9.09383e-19 3.00662e-19 -1.96464e-14) (9.09383e-19 3.00662e-19 -1.96464e-14) (9.09383e-19 3.00662e-19 -1.96464e-14) (9.09383e-19 3.00662e-19 -1.96464e-14) (9.09383e-19 3.00662e-19 -1.96464e-14) (9.09383e-19 3.00662e-19 -1.96464e-14) (9.09383e-19 3.00662e-19 -1.96464e-14) (9.09383e-19 3.00662e-19 -1.96464e-14) (9.09383e-19 3.00662e-19 -1.96464e-14) (9.09383e-19 3.00662e-19 -1.96464e-14)
2100          (7.99282e-19 -1.98921e-19 -2.34367e-15) (7.99282e-19 -1.98921e-19 -2.34367e-15) (7.99282e-19 -1.98921e-19 -2.34367e-15) (7.99282e-19 -1.98921e-19 -2.34367e-15) (7.99282e-19 -1.98921e-19 -2.34367e-15) (7.99282e-19 -1.98921e-19 -2.34367e-15) (7.99282e-19 -1.98921e-19 -2.34367e-15) (7.99282e-19 -1.98921e-19 -2.34367e-15) (7.99282e-19 -1.98921e-19 -2.34367e-15) (7.99282e-19 -1.98921e-19 -2.34367e-15) (7.99282e-19 -1.98921e-19 -2.34367e-15)
2150          (-8.09352e-22 -9.09082e-23 -2.84759e-16) (-8.09352e-22 -9.09082e-23 -2.84759e-16) (-8.09352e-22 -9.09082e-23 -2.84759e-16) (-8.09352e-22 -9.09082e-23 -2.84759e-16) (-8.09352e-22 -9.09082e-23 -2.84759e-16) (-8.09352e-22 -9.09082e-23 -2.84759e-16) (-8.09352e-22 -9.09082e-23 -2.84759e-16) (-8.09352e-22 -9.09082e-23 -2.84759e-16) (-8.09352e-22 -9.09082e-23 -2.84759e-16) (-8.09352e-22 -9.09082e-23 -2.84759e-16) (-8.09352e-22 -9.09082e-23 -2.84759e-16)
2200          (-1.80056e-21 2.17826e-21 1.15981e-12) (-1.80056e-21 2.17826e-21 1.15981e-12) (-1.80056e-21 2.17826e-21 1.15981e-12) (-1.80056e-21 2.17826e-21 1.15981e-12) (-1.80056e-21 2.17826e-21 1.15981e-12) (-1.80056e-21 2.17826e-21 1.15981e-12) (-1.80056e-21 2.17826e-21 1.15981e-12) (-1.80056e-21 2.17826e-21 1.15981e-12) (-1.80056e-21 2.17826e-21 1.15981e-12) (-1.80056e-21 2.17826e-21 1.15981e-12) (-1.80056e-21 2.17826e-21 1.15981e-12)
2250          (-1.9984e-19 -2.19822e-19 1.38005e-13) (-1.9984e-19 -2.19822e-19 1.38005e-13) (-1.9984e-19 -2.19822e-19 1.38005e-13) (-1.9984e-19 -2.19822e-19 1.38005e-13) (-1.9984e-19 -2.19822e-19 1.38005e-13) (-1.9984e-19 -2.19822e-19 1.38005e-13) (-1.9984e-19 -2.19822e-19 1.38005e-13) (-1.9984e-19 -2.19822e-19 1.38005e-13) (-1.9984e-19 -2.19822e-19 1.38005e-13) (-1.9984e-19 -2.19822e-19 1.38005e-13) (-1.9984e-19 -2.19822e-19 1.38005e-13)
2300          (2.01859e-18 2.01838e-18 1.64168e-14) (2.01859e-18 2.01838e-18 1.64168e-14) (2.01859e-18 2.01838e-18 1.64168e-14) (2.01859e-18 2.01838e-18 1.64168e-14) (2.01859e-18 2.01838e-18 1.64168e-14) (2.01859e-18 2.01838e-18 1.64168e-14) (2.01859e-18 2.01838e-18 1.64168e-14) (2.01859e-18 2.01838e-18 1.64168e-14) (2.01859e-18 2.01838e-18 1.64168e-14) (2.01859e-18 2.01838e-18 1.64168e-14) (2.01859e-18 2.01838e-18 1.64168e-14)
2350          (1.99858e-18 1.7988e-23 1.94653e-15) (1.99858e-18 1.7988e-23 1.94653e-15) (1.99858e-18 1.7988e-23 1.94653e-15) (1.99858e-18 1.7988e-23 1.94653e-15) (1.99858e-18 1.7988e-23 1.94653e-15) (1.99858e-18 1.7988e-23 1.94653e-15) (1.99858e-18 1.7988e-23 1.94653e-15) (1.99858e-18 1.7988e-23 1.94653e-15) (1.99858e-18 1.7988e-23 1.94653e-15) (1.99858e-18 1.7988e-23 1.94653e-15) (1.99858e-18 1.7988e-23 1.94653e-15)
2400          (1.81854e-18 -1.97844e-19 2.25878e-16) (1.81854e-18 -1.97844e-19 2.25878e-16) (1.81854e-18 -1.97844e-19 2.25878e-16) (1.81854e-18 -1.97844e-19 2.25878e-16) (1.81854e-18 -1.97844e-19 2.25878e-16) (1.81854e-18 -1.97844e-19 2.25878e-16) (1.81854e-18 -1.97844e-19 2.25878e-16) (1.81854e-18 -1.97844e-19 2.25878e-16) (1.81854e-18 -1.97844e-19 2.25878e-16) (1.81854e-18 -1.97844e-19 2.25878e-16) (1.81854e-18 -1.97844e-19 2.25878e-16)
2450          (2.20024e-20 2.00058e-22 8.91797e-14) (2.20024e-20 2.00058e-22 8.91797e-14) (2.20024e-20 2.00058e-22 8.91797e-14) (2.20024e-20 2.00058e-22 8.91797e-14) (2.20024e-20 2.00058e-22 8.91797e-14) (2.20024e-20 2.00058e-22 8.91797e-14) (2.20024e-20 2.00058e-22 8.91797e-14) (2.20024e-20 2.00058e-22 8.91797e-14) (2.20024e-20 2.00058e-22 8.91797e-14) (2.20024e-20 2.00058e-22 8.91797e-14) (2.20024e-20 2.00058e-22 8.91797e-14)
2500          (-2.00018e-18 -2.3981e-18 1.0606e-14) (-2.00018e-18 -2.3981e-18 1.0606e-14) (-2.00018e-18 -2.3981e-18 1.0606e-14) (-2.00018e-18 -2.3981e-18 1.0606e-14) (-2.00018e-18 -2.3981e-18 1.0606e-14) (-2.00018e-18 -2.3981e-18 1.0606e-14) (-2.00018e-18 -2.3981e-18 1.0606e-14) (-2.00018e-18 -2.3981e-18 1.0606e-14) (-2.00018e-18 -2.3981e-18 1.0606e-14) (-2.00018e-18 -2.3981e-18 1.0606e-14) (-2.00018e-18 -2.3981e-18 1.0606e-14)
2550          (-1.9964e-20 2.01839e-19 1.25606e-15) (-1.9964e-20 2.01839e-19 1.25606e-15) (-1.9964e-20 2.01839e-19 1.25606e-15) (-1.9964e-20 2.01839e-19 1.25606e-15) (-1.9964e-20 2.01839e-19 1.25606e-15) (-1.9964e-20 2.01839e-19 1.25606e-15) (-1.9964e-20 2.01839e-19 1.25606e-15) (-1.9964e-20 2.01839e-19 1.25606e-15) (-1.9964e-20 2.01839e-19 1.25606e-15) (-1.9964e-20 2.01839e-19 1.25606e-15) (-1.9964e-20 2.01839e-19 1.25606e-15)
2600          (-5.7599e-17 -9.97868e-18 -6.81156e-12) (-5.7599e-17 -9.97868e-18 -6.81156e-12) (-5.7599e-17 -9.97868e-18 -6.81156e-12) (-5.7599e-17 -9.97868e-18 -6.81156e-12) (-5.7599e-17 -9.97868e-18 -6.81156e-12) (-5.7599e-17 -9.97868e-18 -6.81156e-12) (-5.7599e-17 -9.97868e-18 -6.81156e-12) (-5.7599e-17 -9.97868e-18 -6.81156e-12) (-5.7599e-17 -9.97868e-18 -6.81156e-12) (-5.7599e-17 -9.97868e-18 -6.81156e-12) (-5.7599e-17 -9.97868e-18 -6.81156e-12)
2650          (8.01459e-21 9.99312e-22 -1.1481e-12) (8.01459e-21 9.99312e-22 -1.1481e-12) (8.01459e-21 9.99312e-22 -1.1481e-12) (8.01459e-21 9.99312e-22 -1.1481e-12) (8.01459e-21 9.99312e-22 -1.1481e-12) (8.01459e-21 9.99312e-22 -1.1481e-12) (8.01459e-21 9.99312e-22 -1.1481e-12) (8.01459e-21 9.99312e-22 -1.1481e-12) (8.01459e-21 9.99312e-22 -1.1481e-12) (8.01459e-21 9.99312e-22 -1.1481e-12) (8.01459e-21 9.99312e-22 -1.1481e-12)
2700          (-1.9773e-19 -9.9918e-21 -1.36628e-13) (-1.9773e-19 -9.9918e-21 -1.36628e-13) (-1.9773e-19 -9.9918e-21 -1.36628e-13) (-1.9773e-19 -9.9918e-21 -1.36628e-13) (-1.9773e-19 -9.9918e-21 -1.36628e-13) (-1.9773e-19 -9.9918e-21 -1.36628e-13) (-1.9773e-19 -9.9918e-21 -1.36628e-13) (-1.9773e-19 -9.9918e-21 -1.36628e-13) (-1.9773e-19 -9.9918e-21 -1.36628e-13) (-1.9773e-19 -9.9918e-21 -1.36628e-13) (-1.9773e-19 -9.9918e-21 -1.36628e-13)
2750          (9.99222e-19 1.01029e-18 -1.62692e-14) (9.99222e-19 1.01029e-18 -1.62692e-14) (9.99222e-19 1.01029e-18 -1.62692e-14) (9.99222e-19 1.01029e-18 -1.62692e-14) (9.99222e-19 1.01029e-18 -1.62692e-14) (9.99222e-19 1.01029e-18 -1.62692e-14) (9.99222e-19 1.01029e-18 -1.62692e-14) (9.99222e-19 1.01029e-18 -1.62692e-14) (9.99222e-19 1.01029e-18 -1.62692e-14) (9.99222e-19 1.01029e-18 -1.62692e-14) (9.99222e-19 1.01029e-18 -1.62692e-14)
2800          (-1.97853e-19 9.99391e-20 -1.94089e-15) (-1.97853e-19 9.99391e-20 -1.94089e-15) (-1.97853e-19 9.99391e-20 -1.94089e-15) (-1.97853e-19 9.99391e-20 -1.94089e-15) (-1.97853e-19 9.99391e-20 -1.94089e-15) (-1.97853e-19 9.99391e-20 -1.94089e-15) (-1.97853e-19 9.99391e-20 -1.94089e-15) (-1.97853e-19 9.99391e-20 -1.94089e-15) (-1.97853e-19 9.99391e-20 -1.94089e-15) (-1.97853e-19 9.99391e-20 -1.94089e-15) (-1.97853e-19 9.99391e-20 -1.94089e-15)
2850          (1.89858e-18 9.8731e-22 -2.3702e-16) (1.89858e-18 9.8731e-22 -2.3702e-16) (1.89858e-18 9.8731e-22 -2.3702e-16) (1.89858e-18 9.8731e-22 -2.3702e-16) (1.89858e-18 9.8731e-22 -2.3702e-16) (1.89858e-18 9.8731e-22 -2.3702e-16) (1.89858e-18 9.8731e-22 -2.3702e-16) (1.89858e-18 9.8731e-22 -2.3702e-16) (1.89858e-18 9.8731e-22 -2.3702e-16) (1.89858e-18 9.8731e-22 -2.3702e-16) (1.89858e-18 9.8731e-22 -2.3702e-16)
2900          (2.42011e-23 2.02475e-26 4.56147e-13) (2.42011e-23 2.02475e-26 4.56147e-13) (2.42011e-23 2.02475e-26 4.56147e-13) (2.42011e-23 2.02475e-26 4.56147e-13) (2.42011e-23 2.02475e-26 4.56147e-13) (2.42011e-23 2.02475e-26 4.56147e-13) (2.42011e-23 2.02475e-26 4.56147e-13) (2.42011e-23 2.02475e-26 4.56147e-13) (2.42011e-23 2.02475e-26 4.56147e-13) (2.42011e-23 2.02475e-26 4.56147e-13) (2.42011e-23 2.02475e-26 4.56147e-13)
2950          (-1.79854e-20 1.9986e-20 5.42777e-14) (-1.79854e-20 1.9986e-20 5.42777e-14) (-1.79854e-20 1.9986e-20 5.42777e-14) (-1.79854e-20 1.9986e-20 5.42777e-14) (-1.79854e-20 1.9986e-20 5.42777e-14) (-1.79854e-20 1.9986e-20 5.42777e-14) (-1.79854e-20 1.9986e-20 5.42777e-14) (-1.79854e-20 1.9986e-20 5.42777e-14) (-1.79854e-20 1.9986e-20 5.42777e-14) (-1.79854e-20 1.9986e-20 5.42777e-14) (-1.79854e-20 1.9986e-20 5.42777e-14)
3000          (-1.99638e-18 -1.79674e-18 6.45317e-15) (-1.99638e-18 -1.79674e-18 6.45317e-15) (-1.99638e-18 -1.79674e-18 6.45317e-15) (-1.99638e-18 -1.79674e-18 6.45317e-15) (-1.99638e-18 -1.79674e-18 6.45317e-15) (-1.99638e-18 -1.79674e-18 6.45317e-15) (-1.99638e-18 -1.79674e-18 6.45317e-15) (-1.99638e-18 -1.79674e-18 6.45317e-15) (-1.99638e-18 -1.79674e-18 6.45317e-15) (-1.99638e-18 -1.79674e-18 6.45317e-15) (-1.99638e-18 -1.79674e-18 6.45317e-15)
3050          (-1.9986e-19 1.80076e-18 7.59441e-16) (-1.9986e-19 1.80076e-18 7.59441e-16) (-1.9986e-19 1.80076e-18 7.59441e-16) (-1.9986e-19 1.80076e-18 7.59441e-16) (-1.9986e-19 1.80076e-18 7.59441e-16) (-1.9986e-19 1.80076e-18 7.59441e-16) (-1.9986e-19 1.80076e-18 7.59441e-16) (-1.9986e-19 1.80076e-18 7.59441e-16) (-1.9986e-19 1.80076e-18 7.59441e-16) (-1.9986e-19 1.80076e-18 7.59441e-16) (-1.9986e-19 1.80076e-18 7.59441e-16)
3100          (-2.00042e-19 -2.00042e-19 2.26876e-14) (-2.00042e-19 -2.00042e-19 2.26876e-14) (-2.00042e-19 -2.00042e-19 2.26876e-14) (-2.00042e-19 -2.00042e-19 2.26876e-14) (-2.00042e-19 -2.00042e-19 2.26876e-14) (-2.00042e-19 -2.00042e-19 2.26876e-14) (-2.00042e-19 -2.00042e-19 2.26876e-14) (-2.00042e-19 -2.00042e-19 2.26876e-14) (-2.00042e-19 -2.00042e-19 2.26876e-14) (-2.00042e-19 -2.00042e-19 2.26876e-14) (-2.00042e-19 -2.00042e-19 2.26876e-14)
3150          (1.19926e-19 -8.99262e-19 -1.46291e-15) (1.19926e-19 -8.99262e-19 -1.46291e-15) (1.19926e-19 -8.99262e-19 -1.46291e-15) (1.19926e-19 -8.99262e-19 -1.46291e-15) (1.19926e-19 -8.99262e-19 -1.46291e-15) (1.19926e-19 -8.99262e-19 -1.46291e-15) (1.19926e-19 -8.99262e-19 -1.46291e-15) (1.19926e-19 -8.99262e-19 -1.46291e-15) (1.19926e-19 -8.99262e-19 -1.46291e-15) (1.19926e-19 -8.99262e-19 -1.46291e-15) (1.19926e-19 -8.99262e-19 -1.46291e-15)
3200          (2.95107e-16 3.87864e-17 -7.14341e-12) (2.95107e-16 3.87864e-17 -7.14341e-12) (2.95107e-16 3.87864e-17 -7.14341e-12) (2.95107e-16 3.87864e-17 -7.14341e-12) (2.95107e-16 3.87864e-17 -7.14341e-12) (2.95107e-16 3.87864e-17 -7.14341e-12) (2.95107e-16 3.87864e-17 -7.14341e-12) (2.95107e-16 3.87864e-17 -7.14341e-12) (2.95107e-16 3.87864e-17 -7.14341e-12) (2.95107e-16 3.87864e-17 -7.14341e-12) (2.95107e-16 3.87864e-17 -7.14341e-12)
3250          (2.00038e-20 -1.7786e-18 2.8633e-13) (2.00038e-20 -1.7786e-18 2.8633e-13) (2.00038e-20 -1.7786e-18 2.8633e-13) (2.00038e-20 -1.7786e-18 2.8633e-13) (2.00038e-20 -1.7786e-18 2.8633e-13) (2.00038e-20 -1.7786e-18 2.8633e-13) (2.00038e-20 -1.7786e-18 2.8633e-13) (2.00038e-20 -1.7786e-18 2.8633e-13) (2.00038e-20 -1.7786e-18 2.8633e-13) (2.00038e-20 -1.7786e-18 2.8633e-13) (2.00038e-20 -1.7786e-18 2.8633e-13)
3300          (-1.79858e-20 1.77658e-18 3.40643e-14) (-1.79858e-20 1.77658e-18 3.40643e-14) (-1.79858e-20 1.77658e-18 3.40643e-14) (-1.79858e-20 1.77658e-18 3.40643e-14) (-1.79858e-20 1.77658e-18 3.40643e-14) (-1.79858e-20 1.77658e-18 3.40643e-14) (-1.79858e-20 1.77658e-18 3.40643e-14) (-1.79858e-20 1.77658e-18 3.40643e-14) (-1.79858e-20 1.77658e-18 3.40643e-14) (-1.79858e-20 1.77658e-18 3.40643e-14) (-1.79858e-20 1.77658e-18 3.40643e-14)