# Probe 0 (0.0015 0.0015 0)
# Probe 1 (0.0015 0.0015 0.002)
# Probe 2 (0.0015 0.0015 0.004)
# Probe 3 (0.0015 0.0015 0.006)
# Probe 4 (0.0015 0.0015 0.008)
# Probe 5 (0.0015 0.0015 0.01)
# Probe 6 (0.0015 0.0015 0.012)
# Probe 7 (0.0015 0.0015 0.014)
# Probe 8 (0.0015 0.0015 0.016)
# Probe 9 (0.0015 0.0015 0.018)
# Probe 10 (0.0015 0.0015 0.02)
# Time        0             1             2             3             4             5             6             7             8             9             10           
50            194692        161515        126933        100993        83572.8       72482.4       64952.7       58501.6       51075.6       40965.2       26875        
100           203465        178696        150375        125046        103483        85857.7       71600.3       59568.6       48416.5       36940.3       24340        
150           206912        185640        160679        137182        115579        96151.5       78938.9       63682.2       49860.8       36824.6       23978        
200           208667        189208        166120        143918        122852        103125        84860.7       68061.8       52588.9       38166.7       24427.1      
250           209700        191317        169387        148075        127537        107913        89312.2       71792.2       55340         39852.6       25120.3      
300           210367        192686        171527        150843        130735        111296        92610         74731.4       57677.9       41409.5       25801.1      
350           210825        193628        173008        152776        132997        113734        95042.8       76965.1       59518.2       42681.6       26372.6      
400           211151        194297        174063        154159        134626        115505        96830.6       78629.4       60911.7       43661.5       26818.4      
450           211385        194780        174824        155159        135808        116794        98138.5       79854.3       61944.5       44393.4       27153.3      
500           211555        195129        175376        155885        136666        117732        99091.4       80748.8       62700.9       44931         27400        
550           211678        195383        175777        156411        137289        118412        99783.2       81398.6       63250.8       45322.4       27579.8      
600           211768        195567        176067        156793        137740        118905        100284        81869.1       63649         45605.8       27710        
650           211832        195699        176277        157068        138066        119261        100646        82208.8       63936.5       45810.4       27804        
700           211879        195795        176428        157267        138301        119518        100907        82453.7       64143.7       45957.9       27871.8      
750           211913        195864        176537        157411        138470        119703        101094        82630         64292.8       46064         27920.5      
800           211937        195914        176616        157513        138592        119836        101229        82756.4       64399.7       46140.1       27955.5      
850           211954        195949        176672        157587        138679        119930        101326        82846.9       64476.2       46194.6       27980.5      
900           211965        195974        176710        157638        138739        119996        101392        82909.6       64529.4       46232.5       27998        
950           211974        195992        176739        157675        138783        120045        101442        82956         64568.8       46260.4       28010.9      
1000          211980        196004        176758        157701        138813        120078        101475        82987.7       64595.6       46279.7       28019.7      
1050          211985        196013        176773        157720        138836        120102        101500        83011.1       64615.4       46293.8       28026        
1100          211988        196019        176782        157732        138850        120118        101516        83026.2       64628.2       46302.9       28030.3      
1150          211990        196024        176789        157741        138861        120130        101528        83037.4       64637.8       46309.8       28033.4      
1200          211991        196026        176793        157747        138868        120137        101536        83044.9       64644.1       46314.3       28035.6      
1250          211992        196028        176796        157750        138872        120142        101541        83049.9       64648.5       46317.5       28037.1      
1300          211992        196029        176797        157752        138874        120144        101543        83051.9       64650.2       46318.7       28037.6      
1350          211993        196029        176798        157753        138875        120146        101545        83053.3       64651.5       46319.6       28038.1      
1400          211993        196029        176798        157753        138875        120146        101545        83053.3       64651.5       46319.6       28038.1      
1450          211993        196029        176798        157753        138875        120146        101545        83053.3       64651.5       46319.6       28038.1      
1500          211993        196029        176798        157753        138875        120146        101545        83053.3       64651.5       46319.6       28038.1      
1550          211993        196029        176798        157753        138875        120146        101545        83053.3       64651.5       46319.6       28038.1      
1600          211993        196029        176798        157753        138875        120146        101545        83053.3       64651.5       46319.6       28038.1      
1650          211993        196029        176798        157753        138875        120146        101545        83053.3       64651.5       46319.6       28038.1      
1700          211993        196029        176798        157753        138875        120146        101545        83053.3       64651.5       46319.6       28038.1      
1750          211993        196029        176798        157753        138875        120146        101545        83053.3       64651.5       46319.6       28038.1      
1800          211993        196029        176798        157753        138875        120146        101545        83053.3       64651.5       46319.6       28038.1      
1850          211993        196029        176798        157753        138875        120146        101545        83053.3       64651.5       46319.6       28038.1      
1900          211993        196029        176798        157753        138875        120146        101545        83053.3       64651.5       46319.6       28038.1      
1950          211993        196029        176798        157753        138875        120146        101545        83053.3       64651.5       46319.6       28038.1      
2000          211993        196029        176798        157753        138875        120146        101545        83053.3       64651.5       46319.6       28038.1      
2050          211993        196029        176798        157753        138875        120146        101545        83053.3       64651.5       46319.6       28038.1      
2100          211993        196029        176798        157753        138875        120146        101545        83053.3       64651.5       46319.6       28038.1      
2150          211993        196029        176798        157753        138875        120146        101545        83053.3       64651.5       46319.6       28038.1      
2200          211993        196029        176798        157753        138875        120146        101545        83053.3       64651.5       46319.6       28038.1      
2250          211993        196029        176798        157753        138875        120146        101545        83053.3       64651.5       46319.6       28038.1      
2300          211993        196029        176798        157753        138875        120146        101545        83053.3       64651.5       46319.6       28038.1      
2350          211993        196029        176798        157753        138875        120146        101545        83053.3       64651.5       46319.6       28038.1      
2400          211993        196029        176798        157753        138875        120146        101545        83053.3       64651.5       46319.6       28038.1      
2450          211993        196029        176798        157753        138875        120146        101545        83053.3       64651.5       46319.6       28038.1      
2500          211993        196029        176798        157753        138875        120146        101545        83053.3       64651.5       46319.6       28038.1      
2550          211993        196029        176798        157753        138875        120146        101545        83053.3       64651.5       46319.6       28038.1      
2600          211993        196029        176798        157753        138875        120146        101545        83053.3       64651.5       46319.6       28038.1      
2650          211993        196029        176798        157753        138875        120146        101545        83053.3       64651.5       46319.6       28038.1      
2700          211993        196029        176798        157753        138875        120146        101545        83053.3       64651.5       46319.6       28038.1      
2750          211993        196029        176798        157753        138875        120146        101545        83053.3       64651.5       46319.6       28038.1      
2800          211993        196029        176798        157753        138875        120146        101545        83053.3       64651.5       46319.6       28038.1      
2850          211993        196029        176798        157753        138875        120146        101545        83053.3       64651.5       46319.6       28038.1      
2900          211993        196029        176798        157753        138875        120146        101545        83053.3       64651.5       46319.6       28038.1      
2950          211993        196029        176798        157753        138875        120146        101545        83053.3       64651.5       46319.6       28038.1      
3000          211993        196029        176798        157753        138875        120146        101545        83053.3       64651.5       46319.6       28038.1      
3050          211993        196029        176798        157753        138875        120146        101545        83053.3       64651.5       46319.6       28038.1      
3100          211993        196029        176798        157753        138875        120146        101545        83053.3       64651.5       46319.6       28038.1      
3150          211993        196029        176798        157753        138875        120146        101545        83053.3       64651.5       46319.6       28038.1      
3200          211993        196029        176798        157753        138875        120146        101545        83053.3       64651.5       46319.6       28038.1      
3250          211993        196029        176798        157753        138875        120146        101545        83053.3       64651.5       46319.6       28038.1      
3300          211993        196029        176798        157753        138875        120146        101545        83053.3       64651.5       46319.6       28038.1      
3350          211993        196029        176798        157753        138875        120146        101545        83053.3       64651.5       46319.6       28038.1      
3400          211993        196029        176798        157753        138875        120146        101545        83053.3       64651.5       46319.6       28038.1      
3450          211993        196029        176798        157753        138875        120146        101545        83053.3       64651.5       46319.6       28038.1      
3500          211993        196029        176798        157753        138875        120146        101545        83053.3       64651.5       46319.6       28038.1      
3550          211993        196029        176798        157753        138875        120146        101545        83053.3       64651.5       46319.6       28038.1      
3600          211993        196029        176798        157753        138875        120146        101545        83053.3       64651.5       46319.6       28038.1      
3650          211993        196029        176798        157753        138875        120146        101545        83053.3       64651.5       46319.6       28038.1      
3700          211993        196029        176798        157753        138875        120146        101545        83053.3       64651.5       46319.6       28038.1      
3750          211993        196029        176798        157753        138875        120146        101545        83053.3       64651.5       46319.6       28038.1      
3800          211993        196029        176798        157753        138875        120146        101545        83053.3       64651.5       46319.6       28038.1      
3850          211993        196029        176798        157753        138875        120146        101545        83053.3       64651.5       46319.6       28038.1      
3900          211993        196029        176798        157753        138875        120146        101545        83053.3       64651.5       46319.6       28038.1      
3950          211993        196029        176798        157753        138875        120146        101545        83053.3       64651.5       46319.6       28038.1      
4000          211993        196029        176798        157753        138875        120146        101545        83053.3       64651.5       46319.6       28038.1      
4050          211993        196029        176798        157753        138875        120146        101545        83053.3       64651.5       46319.6       28038.1      
4100          211993        196029        176798        157753        138875        120146        101545        83053.3       64651.5       46319.6       28038.1      
4150          211993        196029        176798        157753        138875        120146        101545        83053.3       64651.5       46319.6       28038.1      
4200          211993        196029        176798        157753        138875        120146        101545        83053.3       64651.5       46319.6       28038.1      
4250          211993        196029        176798        157753        138875        120146        101545        83053.3       64651.5       46319.6       28038.1      
4300          211993        196029        176798        157753        138875        120146        101545        83053.3       64651.5       46319.6       28038.1      
4350          211993        196029        176798        157753        138875        120146        101545        83053.3       64651.5       46319.6       28038.1      
4400          211993        196029        176798        157753        138875        120146        101545        83053.3       64651.5       46319.6       28038.1      
4450          211993        196029        176798        157753        138875        120146        101545        83053.3       64651.5       46319.6       28038.1      
4500          211993        196029        176798        157753        138875        120146        101545        83053.3       64651.5       46319.6       28038.1      
4550          211993        196029        176798        157753        138875        120146        101545        83053.3       64651.5       46319.6       28038.1      
4600          211993        196029        176798        157753        138875        120146        101545        83053.3       64651.5       46319.6       28038.1      
4650          211993        196029        176798        157753        138875        120146        101545        83053.3       64651.5       46319.6       28038.1      
4700          211993        196029        176798        157753        138875        120146        101545        83053.3       64651.5       46319.6       28038.1      
4750          211993        196029        176798        157753        138875        120146        101545        83053.3       64651.5       46319.6       28038.1      
4800          211993        196029        176798        157753        138875        120146        101545        83053.3       64651.5       46319.6       28038.1      
4850          211993        196029        176798        157753        138875        120146        101545        83053.3       64651.5       46319.6       28038.1      
4900          211993        196029        176798        157753        138875        120146        101545        83053.3       64651.5       46319.6       28038.1      
4950          211993        196029        176798        157753        138875        120146        101545        83053.3       64651.5       46319.6       28038.1      
5000          211993        196029        176798        157753        138875        120146        101545        83053.3       64651.5       46319.6       28038.1      
