# Probe 0 (0.0015 0.0015 0)
# Probe 1 (0.0015 0.0015 0.002)
# Probe 2 (0.0015 0.0015 0.004)
# Probe 3 (0.0015 0.0015 0.006)
# Probe 4 (0.0015 0.0015 0.008)
# Probe 5 (0.0015 0.0015 0.01)
# Probe 6 (0.0015 0.0015 0.012)
# Probe 7 (0.0015 0.0015 0.014)
# Probe 8 (0.0015 0.0015 0.016)
# Probe 9 (0.0015 0.0015 0.018)
# Probe 10 (0.0015 0.0015 0.02)
# Time        0             1             2             3             4             5             6             7             8             9             10           
50            (-50.1111 -50.1111 -1.75739e+07) (-26.3841 -26.3841 -1.92545e+07) (4.65906 4.65906 -1.52857e+07) (24.4829 24.4829 -1.08488e+07) (26.9222 26.9222 -7.1638e+06) (24.0354 24.0354 -4.7938e+06) (18.2191 18.2191 -3.7014e+06) (14.1374 14.1374 -3.66041e+06) (4.28969 4.28969 -4.4743e+06) (-0.77744 -0.77744 -5.97367e+06) (-5.37709 -5.37709 -7.88133e+06)
100           (-38.765 -38.765 -1.21922e+07) (-44.654 -44.654 -1.54093e+07) (-29.669 -29.669 -1.39682e+07) (-12.5811 -12.5811 -1.21073e+07) (8.16484 8.16484 -1.00496e+07) (22.4697 22.4697 -8.13299e+06) (26.4247 26.4247 -6.67684e+06) (22.9632 22.9632 -5.85089e+06) (17.7767 17.7767 -5.64546e+06) (4.40337 4.40337 -5.91613e+06) (-2.6218 -2.6218 -6.40704e+06)
150           (-49.4789 -49.4789 -1.00685e+07) (-14.1837 -14.1837 -1.36622e+07) (-16.4903 -16.4903 -1.28431e+07) (-2.34311 -2.34311 -1.18199e+07) (9.7788 9.7788 -1.06443e+07) (20.2579 20.2579 -9.41174e+06) (26.3796 26.3796 -8.25375e+06) (24.8623 24.8623 -7.30579e+06) (18.4504 18.4504 -6.65785e+06) (17.7596 17.7596 -6.32082e+06) (-4.25431 -4.25431 -6.21566e+06)
200           (-14.7252 -14.7252 -8.98515e+06) (-9.61441 -9.61441 -1.2734e+07) (-13.6458 -13.6458 -1.21522e+07) (-8.90875 -8.90875 -1.14587e+07) (-5.01947 -5.01947 -1.06693e+07) (-0.60548 -0.60548 -9.81519e+06) (3.78996 3.78996 -8.94476e+06) (6.82584 6.82584 -8.12121e+06) (9.15931 9.15931 -7.41044e+06) (9.99936 9.99936 -6.86486e+06) (4.15758 4.15758 -6.50769e+06)
250           (3.94973 3.94973 -8.3475e+06) (3.17007 3.17007 -1.21747e+07) (4.20604 4.20604 -1.17048e+07) (3.89314 3.89314 -1.11683e+07) (3.03958 3.03958 -1.05703e+07) (1.56259 1.56259 -9.92254e+06) (-0.473005 -0.473005 -9.24489e+06) (-2.74228 -2.74228 -8.56678e+06) (-4.5296 -4.5296 -7.92578e+06) (-3.77429 -3.77429 -7.36658e+06) (0.413591 0.413591 -6.94105e+06)
300           (2.13187 2.13187 -7.93494e+06) (1.63986 1.63986 -1.18073e+07) (2.42301 2.42301 -1.13988e+07) (2.38843 2.38843 -1.09488e+07) (2.12741 2.12741 -1.04589e+07) (1.58759 1.58759 -9.93418e+06) (0.748188 0.748188 -9.3841e+06) (-0.368342 -0.368342 -8.82429e+06) (-1.64778 -1.64778 -8.2768e+06) (-1.99348 -1.99348 -7.77329e+06) (-2.54777 -2.54777 -7.36228e+06)
350           (-0.0923769 -0.0923769 -7.65146e+06) (0.222815 0.222815 -1.15527e+07) (0.966353 0.966353 -1.11821e+07) (1.16957 1.16957 -1.07855e+07) (1.29388 1.29388 -1.03636e+07) (1.30062 1.30062 -9.91891e+06) (1.15395 1.15395 -9.45662e+06) (0.80923 0.80923 -8.98626e+06) (0.207517 0.207517 -8.52181e+06) (-0.0833195 -0.0833195 -8.08523e+06) (-1.3703 -1.3703 -7.71429e+06)
400           (23.2454 23.2454 -7.45021e+06) (10.7545 10.7545 -1.13712e+07) (8.92897 8.92897 -1.10258e+07) (6.48206 6.48206 -1.06651e+07) (3.51243 3.51243 -1.02891e+07) (0.034963 0.0349631 -9.89949e+06) (-3.85552 -3.85552 -9.4994e+06) (-8.01167 -8.01167 -9.09523e+06) (-12.2402 -12.2402 -8.69637e+06) (-15.9732 -15.9732 -8.31818e+06) (-32.3505 -32.3505 -7.98836e+06)
450           (10.1976 10.1976 -7.30517e+06) (-2.72443 -2.72443 -1.12401e+07) (-2.64943 -2.64943 -1.09125e+07) (-1.45597 -1.45597 -1.05769e+07) (0.272075 0.272075 -1.02333e+07) (1.42188 1.42188 -9.88283e+06) (0.659891 0.659891 -9.52747e+06) (-3.00401 -3.00401 -9.17179e+06) (-9.47395 -9.47395 -8.82227e+06) (-17.1409 -17.1409 -8.48973e+06) (-37.563 -37.563 -8.19406e+06)
500           (5.67402 5.67402 -7.20005e+06) (-2.96131 -2.96131 -1.11451e+07) (-1.52971 -1.52971 -1.08302e+07) (0.298056 0.298056 -1.05126e+07) (1.59801 1.59801 -1.01923e+07) (1.50581 1.50581 -9.87003e+06) (-0.402068 -0.402068 -9.54703e+06) (-3.93435 -3.93435 -9.22665e+06) (-8.32605 -8.32605 -8.91341e+06) (-12.452 -12.452 -8.61498e+06) (-26.1834 -26.1834 -8.3455e+06)
550           (3.96196 3.96196 -7.12381e+06) (-2.32608 -2.32608 -1.10762e+07) (-1.15145 -1.15145 -1.07705e+07) (0.254207 0.254207 -1.0466e+07) (1.19039 1.19039 -1.01626e+07) (1.04212 1.04212 -9.86063e+06) (-0.43314 -0.43314 -9.56105e+06) (-3.02527 -3.02527 -9.26627e+06) (-6.15166 -6.15166 -8.97943e+06) (-9.03094 -9.03094 -8.70593e+06) (-18.9594 -18.9594 -8.45583e+06)
600           (2.84232 2.84232 -7.06858e+06) (-1.80525 -1.80525 -1.10263e+07) (-0.924602 -0.924602 -1.07273e+07) (0.104053 0.104053 -1.04322e+07) (0.787894 0.787894 -1.0141e+07) (0.682797 0.682797 -9.85385e+06) (-0.381675 -0.381675 -9.57122e+06) (-2.24799 -2.24799 -9.29495e+06) (-4.49304 -4.49304 -9.02719e+06) (-6.55414 -6.55414 -8.77175e+06) (-13.734 -13.734 -8.53576e+06)
650           (45.0145 45.0145 -7.02865e+06) (12.0387 12.0387 -1.09902e+07) (8.54379 8.54379 -1.0696e+07) (5.08678 5.08678 -1.04079e+07) (0.30265 0.30265 -1.01255e+07) (-6.87453 -6.87453 -9.84899e+06) (-16.4546 -16.4546 -9.57861e+06) (-27.3597 -27.3597 -9.31569e+06) (-38.3893 -38.3893 -9.0617e+06) (-48.6931 -48.6931 -8.81928e+06) (-82.8024 -82.8024 -8.59345e+06)
700           (23.6101 23.6101 -6.99977e+06) (3.79689 3.79689 -1.09643e+07) (9.65163 9.65163 -1.06734e+07) (0.217321 0.217321 -1.03904e+07) (-0.0312287 -0.0312287 -1.01143e+07) (-4.31159 -4.31159 -9.84551e+06) (-8.90828 -8.90828 -9.58399e+06) (-10.0224 -10.0224 -9.33064e+06) (-15.0736 -15.0736 -9.0866e+06) (-15.3931 -15.3931 -8.8535e+06) (-28.9184 -28.9184 -8.63504e+06)
750           (6.00669 6.00669 -6.97897e+06) (4.5402 4.5402 -1.09455e+07) (13.9748 13.9748 -1.06572e+07) (7.21758 7.21758 -1.03777e+07) (8.62877 8.62877 -1.01063e+07) (7.46975 7.46975 -9.84303e+06) (4.33164 4.33164 -9.58789e+06) (5.1909 5.1909 -9.34144e+06) (1.2034 1.2034 -9.10453e+06) (1.69647 1.69647 -8.87816e+06) (4.10021 4.10021 -8.66498e+06)
800           (35.7749 35.7749 -6.96408e+06) (0.0246123 0.0246122 -1.09321e+07) (17.8212 17.8212 -1.06455e+07) (0.16895 0.16895 -1.03687e+07) (-1.49296 -1.49296 -1.01005e+07) (-8.84274 -8.84274 -9.84124e+06) (-18.5901 -18.5901 -9.5907e+06) (-19.7975 -19.7975 -9.34919e+06) (-29.1449 -29.1449 -9.1174e+06) (6.22096 6.22096 -8.89589e+06) (-61.1587 -61.1587 -8.68641e+06)
850           (13.157 13.157 -6.95343e+06) (-10.5331 -10.5331 -1.09225e+07) (5.82722 5.82722 -1.06372e+07) (-8.0972 -8.0972 -1.03622e+07) (-3.33009 -3.33009 -1.00963e+07) (-6.31592 -6.31592 -9.83994e+06) (-8.26555 -8.26555 -9.59259e+06) (-6.50538 -6.50538 -9.35468e+06) (-9.17061 -9.17061 -9.12654e+06) (-5.46979 -5.46979 -8.90844e+06) (-15.2622 -15.2622 -8.70179e+06)
900           (19.8949 19.8949 -6.94618e+06) (15.7277 15.7277 -1.09155e+07) (3.41488 3.41488 -1.06317e+07) (6.85502 6.85502 -1.03575e+07) (-4.76796 -4.76796 -1.00936e+07) (-3.26675 -3.26675 -9.83896e+06) (-11.4522 -11.4522 -9.59394e+06) (-11.9475 -11.9475 -9.35848e+06) (-13.6082 -13.6082 -9.13285e+06) (-14.3885 -14.3885 -8.91723e+06) (-18.6655 -18.6655 -8.71249e+06)
950           (-25.5482 -25.5482 -6.94066e+06) (-28.1364 -28.1364 -1.09107e+07) (-26.2397 -26.2397 -1.06274e+07) (-22.3149 -22.3149 -1.03543e+07) (-19.714 -19.714 -1.00915e+07) (-11.1528 -11.1528 -9.83846e+06) (-3.39118 -3.39118 -9.59505e+06) (8.31496 8.31496 -9.36145e+06) (20.2685 20.2685 -9.13766e+06) (34.0736 34.0736 -8.92374e+06) (31.4841 31.4841 -8.72046e+06)
1000          (1.4072 1.4072 -6.93698e+06) (-2.76094 -2.76094 -1.09073e+07) (-4.63178 -4.63178 -1.06244e+07) (-4.61491 -4.61491 -1.0352e+07) (-4.30881 -4.30881 -1.00899e+07) (-3.8738 -3.8738 -9.83793e+06) (-4.53008 -4.53008 -9.59566e+06) (-0.588501 -0.588501 -9.36327e+06) (-1.99534 -1.99534 -9.14083e+06) (0.601722 0.601722 -8.9282e+06) (-3.80361 -3.80361 -8.72582e+06)
1050          (-9.04102 -9.04102 -6.93424e+06) (-7.44422 -7.44422 -1.09049e+07) (-5.25598 -5.25598 -1.06223e+07) (-6.90757 -6.90757 -1.03504e+07) (-3.06912 -3.06912 -1.00889e+07) (-0.137591 -0.137591 -9.83759e+06) (-2.30025 -2.30025 -9.5962e+06) (8.35818 8.35818 -9.36463e+06) (0.494765 0.494765 -9.14329e+06) (12.8721 12.8721 -8.93139e+06) (11.1106 11.1106 -8.7298e+06)
1100          (-4.10336 -4.10336 -6.93249e+06) (-4.40962 -4.40962 -1.09033e+07) (-3.9831 -3.9831 -1.06209e+07) (-3.85265 -3.85265 -1.03493e+07) (-3.05187 -3.05187 -1.00881e+07) (-2.76876 -2.76876 -9.83736e+06) (-1.53144 -1.53144 -9.59641e+06) (-0.825988 -0.825988 -9.3656e+06) (-0.396687 -0.396687 -9.1447e+06) (3.19338 3.19338 -8.93354e+06) (-0.300279 -0.300279 -8.73237e+06)
1150          (-5.70204 -5.70204 -6.93121e+06) (-5.10065 -5.10065 -1.09021e+07) (-3.08219 -3.08219 -1.06198e+07) (-3.41659 -3.41659 -1.03484e+07) (0.181713 0.181714 -1.00876e+07) (0.150699 0.150699 -9.83714e+06) (2.87049 2.87049 -9.59658e+06) (4.29081 4.29081 -9.3662e+06) (-0.335082 -0.335082 -9.14584e+06) (10.7152 10.7152 -8.935e+06) (0.704346 0.704346 -8.73433e+06)
1200          (3.10108 3.10108 -6.93036e+06) (2.15929 2.15929 -1.09014e+07) (0.986343 0.986343 -1.06192e+07) (1.01785 1.01785 -1.03479e+07) (-0.37575 -0.37575 -1.00873e+07) (-0.577814 -0.577814 -9.83705e+06) (-1.11048 -1.11048 -9.59677e+06) (-3.06272 -3.06272 -9.36672e+06) (-0.873902 -0.873902 -9.14654e+06) (-3.02993 -3.02993 -8.9362e+06) (-2.91808 -2.91808 -8.73561e+06)
1250          (13.0622 13.0622 -6.92983e+06) (8.50645 8.50645 -1.09009e+07) (7.30881 7.30881 -1.06188e+07) (2.54374 2.54374 -1.03476e+07) (0.868979 0.868979 -1.00871e+07) (-4.22841 -4.22841 -9.83701e+06) (-7.7882 -7.7882 -9.59691e+06) (-5.45757 -5.45757 -9.36696e+06) (-14.6547 -14.6547 -9.14715e+06) (-10.0117 -10.0117 -8.93695e+06) (-9.47306 -9.47306 -8.73652e+06)
1300          (3.10243 3.10243 -6.9296e+06) (-3.64274 -3.64274 -1.09007e+07) (-3.35215 -3.35215 -1.06186e+07) (-7.87978 -7.87978 -1.03475e+07) (-6.96898 -6.96898 -1.0087e+07) (-10.6643 -10.6643 -9.83699e+06) (-11.3569 -11.3569 -9.59694e+06) (-4.69822 -4.69822 -9.36709e+06) (-15.1565 -15.1565 -9.14734e+06) (-7.05621 -7.05621 -8.93725e+06) (-9.48167 -9.48167 -8.73686e+06)
1350          (4.83488 4.83488 -6.92946e+06) (2.70131 2.70131 -1.09006e+07) (1.89072 1.89072 -1.06185e+07) (0.670721 0.670721 -1.03473e+07) (-0.48963 -0.48963 -1.00869e+07) (-1.73413 -1.73413 -9.83688e+06) (-2.77226 -2.77226 -9.59687e+06) (-3.50185 -3.50185 -9.36715e+06) (-3.5823 -3.5823 -9.14733e+06) (-3.00319 -3.00319 -8.93738e+06) (-4.99406 -4.99406 -8.73714e+06)
1400          (4.83488 4.83488 -6.92946e+06) (2.70131 2.70131 -1.09006e+07) (1.89072 1.89072 -1.06185e+07) (0.670721 0.670721 -1.03473e+07) (-0.48963 -0.48963 -1.00869e+07) (-1.73413 -1.73413 -9.83688e+06) (-2.77226 -2.77226 -9.59687e+06) (-3.50185 -3.50185 -9.36715e+06) (-3.5823 -3.5823 -9.14733e+06) (-3.00319 -3.00319 -8.93738e+06) (-4.99406 -4.99406 -8.73714e+06)
1450          (4.83488 4.83488 -6.92946e+06) (2.70131 2.70131 -1.09006e+07) (1.89072 1.89072 -1.06185e+07) (0.670721 0.670721 -1.03473e+07) (-0.48963 -0.48963 -1.00869e+07) (-1.73413 -1.73413 -9.83688e+06) (-2.77226 -2.77226 -9.59687e+06) (-3.50185 -3.50185 -9.36715e+06) (-3.5823 -3.5823 -9.14733e+06) (-3.00319 -3.00319 -8.93738e+06) (-4.99406 -4.99406 -8.73714e+06)
1500          (4.83488 4.83488 -6.92946e+06) (2.70131 2.70131 -1.09006e+07) (1.89072 1.89072 -1.06185e+07) (0.670721 0.670721 -1.03473e+07) (-0.48963 -0.48963 -1.00869e+07) (-1.73413 -1.73413 -9.83688e+06) (-2.77226 -2.77226 -9.59687e+06) (-3.50185 -3.50185 -9.36715e+06) (-3.5823 -3.5823 -9.14733e+06) (-3.00319 -3.00319 -8.93738e+06) (-4.99406 -4.99406 -8.73714e+06)
1550          (4.83488 4.83488 -6.92946e+06) (2.70131 2.70131 -1.09006e+07) (1.89072 1.89072 -1.06185e+07) (0.670721 0.670721 -1.03473e+07) (-0.48963 -0.48963 -1.00869e+07) (-1.73413 -1.73413 -9.83688e+06) (-2.77226 -2.77226 -9.59687e+06) (-3.50185 -3.50185 -9.36715e+06) (-3.5823 -3.5823 -9.14733e+06) (-3.00319 -3.00319 -8.93738e+06) (-4.99406 -4.99406 -8.73714e+06)
1600          (4.83488 4.83488 -6.92946e+06) (2.70131 2.70131 -1.09006e+07) (1.89072 1.89072 -1.06185e+07) (0.670721 0.670721 -1.03473e+07) (-0.48963 -0.48963 -1.00869e+07) (-1.73413 -1.73413 -9.83688e+06) (-2.77226 -2.77226 -9.59687e+06) (-3.50185 -3.50185 -9.36715e+06) (-3.5823 -3.5823 -9.14733e+06) (-3.00319 -3.00319 -8.93738e+06) (-4.99406 -4.99406 -8.73714e+06)
1650          (4.83488 4.83488 -6.92946e+06) (2.70131 2.70131 -1.09006e+07) (1.89072 1.89072 -1.06185e+07) (0.670721 0.670721 -1.03473e+07) (-0.48963 -0.48963 -1.00869e+07) (-1.73413 -1.73413 -9.83688e+06) (-2.77226 -2.77226 -9.59687e+06) (-3.50185 -3.50185 -9.36715e+06) (-3.5823 -3.5823 -9.14733e+06) (-3.00319 -3.00319 -8.93738e+06) (-4.99406 -4.99406 -8.73714e+06)
1700          (4.83488 4.83488 -6.92946e+06) (2.70131 2.70131 -1.09006e+07) (1.89072 1.89072 -1.06185e+07) (0.670721 0.670721 -1.03473e+07) (-0.48963 -0.48963 -1.00869e+07) (-1.73413 -1.73413 -9.83688e+06) (-2.77226 -2.77226 -9.59687e+06) (-3.50185 -3.50185 -9.36715e+06) (-3.5823 -3.5823 -9.14733e+06) (-3.00319 -3.00319 -8.93738e+06) (-4.99406 -4.99406 -8.73714e+06)
1750          (4.83488 4.83488 -6.92946e+06) (2.70131 2.70131 -1.09006e+07) (1.89072 1.89072 -1.06185e+07) (0.670721 0.670721 -1.03473e+07) (-0.48963 -0.48963 -1.00869e+07) (-1.73413 -1.73413 -9.83688e+06) (-2.77226 -2.77226 -9.59687e+06) (-3.50185 -3.50185 -9.36715e+06) (-3.5823 -3.5823 -9.14733e+06) (-3.00319 -3.00319 -8.93738e+06) (-4.99406 -4.99406 -8.73714e+06)
1800          (4.83488 4.83488 -6.92946e+06) (2.70131 2.70131 -1.09006e+07) (1.89072 1.89072 -1.06185e+07) (0.670721 0.670721 -1.03473e+07) (-0.48963 -0.48963 -1.00869e+07) (-1.73413 -1.73413 -9.83688e+06) (-2.77226 -2.77226 -9.59687e+06) (-3.50185 -3.50185 -9.36715e+06) (-3.5823 -3.5823 -9.14733e+06) (-3.00319 -3.00319 -8.93738e+06) (-4.99406 -4.99406 -8.73714e+06)
1850          (4.83488 4.83488 -6.92946e+06) (2.70131 2.70131 -1.09006e+07) (1.89072 1.89072 -1.06185e+07) (0.670721 0.670721 -1.03473e+07) (-0.48963 -0.48963 -1.00869e+07) (-1.73413 -1.73413 -9.83688e+06) (-2.77226 -2.77226 -9.59687e+06) (-3.50185 -3.50185 -9.36715e+06) (-3.5823 -3.5823 -9.14733e+06) (-3.00319 -3.00319 -8.93738e+06) (-4.99406 -4.99406 -8.73714e+06)
1900          (4.83488 4.83488 -6.92946e+06) (2.70131 2.70131 -1.09006e+07) (1.89072 1.89072 -1.06185e+07) (0.670721 0.670721 -1.03473e+07) (-0.48963 -0.48963 -1.00869e+07) (-1.73413 -1.73413 -9.83688e+06) (-2.77226 -2.77226 -9.59687e+06) (-3.50185 -3.50185 -9.36715e+06) (-3.5823 -3.5823 -9.14733e+06) (-3.00319 -3.00319 -8.93738e+06) (-4.99406 -4.99406 -8.73714e+06)
1950          (4.83488 4.83488 -6.92946e+06) (2.70131 2.70131 -1.09006e+07) (1.89072 1.89072 -1.06185e+07) (0.670721 0.670721 -1.03473e+07) (-0.48963 -0.48963 -1.00869e+07) (-1.73413 -1.73413 -9.83688e+06) (-2.77226 -2.77226 -9.59687e+06) (-3.50185 -3.50185 -9.36715e+06) (-3.5823 -3.5823 -9.14733e+06) (-3.00319 -3.00319 -8.93738e+06) (-4.99406 -4.99406 -8.73714e+06)
2000          (4.83488 4.83488 -6.92946e+06) (2.70131 2.70131 -1.09006e+07) (1.89072 1.89072 -1.06185e+07) (0.670721 0.670721 -1.03473e+07) (-0.48963 -0.48963 -1.00869e+07) (-1.73413 -1.73413 -9.83688e+06) (-2.77226 -2.77226 -9.59687e+06) (-3.50185 -3.50185 -9.36715e+06) (-3.5823 -3.5823 -9.14733e+06) (-3.00319 -3.00319 -8.93738e+06) (-4.99406 -4.99406 -8.73714e+06)
2050          (4.83488 4.83488 -6.92946e+06) (2.70131 2.70131 -1.09006e+07) (1.89072 1.89072 -1.06185e+07) (0.670721 0.670721 -1.03473e+07) (-0.48963 -0.48963 -1.00869e+07) (-1.73413 -1.73413 -9.83688e+06) (-2.77226 -2.77226 -9.59687e+06) (-3.50185 -3.50185 -9.36715e+06) (-3.5823 -3.5823 -9.14733e+06) (-3.00319 -3.00319 -8.93738e+06) (-4.99406 -4.99406 -8.73714e+06)
2100          (4.83488 4.83488 -6.92946e+06) (2.70131 2.70131 -1.09006e+07) (1.89072 1.89072 -1.06185e+07) (0.670721 0.670721 -1.03473e+07) (-0.48963 -0.48963 -1.00869e+07) (-1.73413 -1.73413 -9.83688e+06) (-2.77226 -2.77226 -9.59687e+06) (-3.50185 -3.50185 -9.36715e+06) (-3.5823 -3.5823 -9.14733e+06) (-3.00319 -3.00319 -8.93738e+06) (-4.99406 -4.99406 -8.73714e+06)
2150          (4.83488 4.83488 -6.92946e+06) (2.70131 2.70131 -1.09006e+07) (1.89072 1.89072 -1.06185e+07) (0.670721 0.670721 -1.03473e+07) (-0.48963 -0.48963 -1.00869e+07) (-1.73413 -1.73413 -9.83688e+06) (-2.77226 -2.77226 -9.59687e+06) (-3.50185 -3.50185 -9.36715e+06) (-3.5823 -3.5823 -9.14733e+06) (-3.00319 -3.00319 -8.93738e+06) (-4.99406 -4.99406 -8.73714e+06)
2200          (4.83488 4.83488 -6.92946e+06) (2.70131 2.70131 -1.09006e+07) (1.89072 1.89072 -1.06185e+07) (0.670721 0.670721 -1.03473e+07) (-0.48963 -0.48963 -1.00869e+07) (-1.73413 -1.73413 -9.83688e+06) (-2.77226 -2.77226 -9.59687e+06) (-3.50185 -3.50185 -9.36715e+06) (-3.5823 -3.5823 -9.14733e+06) (-3.00319 -3.00319 -8.93738e+06) (-4.99406 -4.99406 -8.73714e+06)
2250          (4.83488 4.83488 -6.92946e+06) (2.70131 2.70131 -1.09006e+07) (1.89072 1.89072 -1.06185e+07) (0.670721 0.670721 -1.03473e+07) (-0.48963 -0.48963 -1.00869e+07) (-1.73413 -1.73413 -9.83688e+06) (-2.77226 -2.77226 -9.59687e+06) (-3.50185 -3.50185 -9.36715e+06) (-3.5823 -3.5823 -9.14733e+06) (-3.00319 -3.00319 -8.93738e+06) (-4.99406 -4.99406 -8.73714e+06)
2300          (4.83488 4.83488 -6.92946e+06) (2.70131 2.70131 -1.09006e+07) (1.89072 1.89072 -1.06185e+07) (0.670721 0.670721 -1.03473e+07) (-0.48963 -0.48963 -1.00869e+07) (-1.73413 -1.73413 -9.83688e+06) (-2.77226 -2.77226 -9.59687e+06) (-3.50185 -3.50185 -9.36715e+06) (-3.5823 -3.5823 -9.14733e+06) (-3.00319 -3.00319 -8.93738e+06) (-4.99406 -4.99406 -8.73714e+06)
2350          (4.83488 4.83488 -6.92946e+06) (2.70131 2.70131 -1.09006e+07) (1.89072 1.89072 -1.06185e+07) (0.670721 0.670721 -1.03473e+07) (-0.48963 -0.48963 -1.00869e+07) (-1.73413 -1.73413 -9.83688e+06) (-2.77226 -2.77226 -9.59687e+06) (-3.50185 -3.50185 -9.36715e+06) (-3.5823 -3.5823 -9.14733e+06) (-3.00319 -3.00319 -8.93738e+06) (-4.99406 -4.99406 -8.73714e+06)
2400          (4.83488 4.83488 -6.92946e+06) (2.70131 2.70131 -1.09006e+07) (1.89072 1.89072 -1.06185e+07) (0.670721 0.670721 -1.03473e+07) (-0.48963 -0.48963 -1.00869e+07) (-1.73413 -1.73413 -9.83688e+06) (-2.77226 -2.77226 -9.59687e+06) (-3.50185 -3.50185 -9.36715e+06) (-3.5823 -3.5823 -9.14733e+06) (-3.00319 -3.00319 -8.93738e+06) (-4.99406 -4.99406 -8.73714e+06)
2450          (4.83488 4.83488 -6.92946e+06) (2.70131 2.70131 -1.09006e+07) (1.89072 1.89072 -1.06185e+07) (0.670721 0.670721 -1.03473e+07) (-0.48963 -0.48963 -1.00869e+07) (-1.73413 -1.73413 -9.83688e+06) (-2.77226 -2.77226 -9.59687e+06) (-3.50185 -3.50185 -9.36715e+06) (-3.5823 -3.5823 -9.14733e+06) (-3.00319 -3.00319 -8.93738e+06) (-4.99406 -4.99406 -8.73714e+06)
2500          (4.83488 4.83488 -6.92946e+06) (2.70131 2.70131 -1.09006e+07) (1.89072 1.89072 -1.06185e+07) (0.670721 0.670721 -1.03473e+07) (-0.48963 -0.48963 -1.00869e+07) (-1.73413 -1.73413 -9.83688e+06) (-2.77226 -2.77226 -9.59687e+06) (-3.50185 -3.50185 -9.36715e+06) (-3.5823 -3.5823 -9.14733e+06) (-3.00319 -3.00319 -8.93738e+06) (-4.99406 -4.99406 -8.73714e+06)
2550          (4.83488 4.83488 -6.92946e+06) (2.70131 2.70131 -1.09006e+07) (1.89072 1.89072 -1.06185e+07) (0.670721 0.670721 -1.03473e+07) (-0.48963 -0.48963 -1.00869e+07) (-1.73413 -1.73413 -9.83688e+06) (-2.77226 -2.77226 -9.59687e+06) (-3.50185 -3.50185 -9.36715e+06) (-3.5823 -3.5823 -9.14733e+06) (-3.00319 -3.00319 -8.93738e+06) (-4.99406 -4.99406 -8.73714e+06)
2600          (4.83488 4.83488 -6.92946e+06) (2.70131 2.70131 -1.09006e+07) (1.89072 1.89072 -1.06185e+07) (0.670721 0.670721 -1.03473e+07) (-0.48963 -0.48963 -1.00869e+07) (-1.73413 -1.73413 -9.83688e+06) (-2.77226 -2.77226 -9.59687e+06) (-3.50185 -3.50185 -9.36715e+06) (-3.5823 -3.5823 -9.14733e+06) (-3.00319 -3.00319 -8.93738e+06) (-4.99406 -4.99406 -8.73714e+06)
2650          (4.83488 4.83488 -6.92946e+06) (2.70131 2.70131 -1.09006e+07) (1.89072 1.89072 -1.06185e+07) (0.670721 0.670721 -1.03473e+07) (-0.48963 -0.48963 -1.00869e+07) (-1.73413 -1.73413 -9.83688e+06) (-2.77226 -2.77226 -9.59687e+06) (-3.50185 -3.50185 -9.36715e+06) (-3.5823 -3.5823 -9.14733e+06) (-3.00319 -3.00319 -8.93738e+06) (-4.99406 -4.99406 -8.73714e+06)
2700          (4.83488 4.83488 -6.92946e+06) (2.70131 2.70131 -1.09006e+07) (1.89072 1.89072 -1.06185e+07) (0.670721 0.670721 -1.03473e+07) (-0.48963 -0.48963 -1.00869e+07) (-1.73413 -1.73413 -9.83688e+06) (-2.77226 -2.77226 -9.59687e+06) (-3.50185 -3.50185 -9.36715e+06) (-3.5823 -3.5823 -9.14733e+06) (-3.00319 -3.00319 -8.93738e+06) (-4.99406 -4.99406 -8.73714e+06)
2750          (4.83488 4.83488 -6.92946e+06) (2.70131 2.70131 -1.09006e+07) (1.89072 1.89072 -1.06185e+07) (0.670721 0.670721 -1.03473e+07) (-0.48963 -0.48963 -1.00869e+07) (-1.73413 -1.73413 -9.83688e+06) (-2.77226 -2.77226 -9.59687e+06) (-3.50185 -3.50185 -9.36715e+06) (-3.5823 -3.5823 -9.14733e+06) (-3.00319 -3.00319 -8.93738e+06) (-4.99406 -4.99406 -8.73714e+06)
2800          (4.83488 4.83488 -6.92946e+06) (2.70131 2.70131 -1.09006e+07) (1.89072 1.89072 -1.06185e+07) (0.670721 0.670721 -1.03473e+07) (-0.48963 -0.48963 -1.00869e+07) (-1.73413 -1.73413 -9.83688e+06) (-2.77226 -2.77226 -9.59687e+06) (-3.50185 -3.50185 -9.36715e+06) (-3.5823 -3.5823 -9.14733e+06) (-3.00319 -3.00319 -8.93738e+06) (-4.99406 -4.99406 -8.73714e+06)
2850          (4.83488 4.83488 -6.92946e+06) (2.70131 2.70131 -1.09006e+07) (1.89072 1.89072 -1.06185e+07) (0.670721 0.670721 -1.03473e+07) (-0.48963 -0.48963 -1.00869e+07) (-1.73413 -1.73413 -9.83688e+06) (-2.77226 -2.77226 -9.59687e+06) (-3.50185 -3.50185 -9.36715e+06) (-3.5823 -3.5823 -9.14733e+06) (-3.00319 -3.00319 -8.93738e+06) (-4.99406 -4.99406 -8.73714e+06)
2900          (4.83488 4.83488 -6.92946e+06) (2.70131 2.70131 -1.09006e+07) (1.89072 1.89072 -1.06185e+07) (0.670721 0.670721 -1.03473e+07) (-0.48963 -0.48963 -1.00869e+07) (-1.73413 -1.73413 -9.83688e+06) (-2.77226 -2.77226 -9.59687e+06) (-3.50185 -3.50185 -9.36715e+06) (-3.5823 -3.5823 -9.14733e+06) (-3.00319 -3.00319 -8.93738e+06) (-4.99406 -4.99406 -8.73714e+06)
2950          (4.83488 4.83488 -6.92946e+06) (2.70131 2.70131 -1.09006e+07) (1.89072 1.89072 -1.06185e+07) (0.670721 0.670721 -1.03473e+07) (-0.48963 -0.48963 -1.00869e+07) (-1.73413 -1.73413 -9.83688e+06) (-2.77226 -2.77226 -9.59687e+06) (-3.50185 -3.50185 -9.36715e+06) (-3.5823 -3.5823 -9.14733e+06) (-3.00319 -3.00319 -8.93738e+06) (-4.99406 -4.99406 -8.73714e+06)
3000          (4.83488 4.83488 -6.92946e+06) (2.70131 2.70131 -1.09006e+07) (1.89072 1.89072 -1.06185e+07) (0.670721 0.670721 -1.03473e+07) (-0.48963 -0.48963 -1.00869e+07) (-1.73413 -1.73413 -9.83688e+06) (-2.77226 -2.77226 -9.59687e+06) (-3.50185 -3.50185 -9.36715e+06) (-3.5823 -3.5823 -9.14733e+06) (-3.00319 -3.00319 -8.93738e+06) (-4.99406 -4.99406 -8.73714e+06)
3050          (4.83488 4.83488 -6.92946e+06) (2.70131 2.70131 -1.09006e+07) (1.89072 1.89072 -1.06185e+07) (0.670721 0.670721 -1.03473e+07) (-0.48963 -0.48963 -1.00869e+07) (-1.73413 -1.73413 -9.83688e+06) (-2.77226 -2.77226 -9.59687e+06) (-3.50185 -3.50185 -9.36715e+06) (-3.5823 -3.5823 -9.14733e+06) (-3.00319 -3.00319 -8.93738e+06) (-4.99406 -4.99406 -8.73714e+06)
3100          (4.83488 4.83488 -6.92946e+06) (2.70131 2.70131 -1.09006e+07) (1.89072 1.89072 -1.06185e+07) (0.670721 0.670721 -1.03473e+07) (-0.48963 -0.48963 -1.00869e+07) (-1.73413 -1.73413 -9.83688e+06) (-2.77226 -2.77226 -9.59687e+06) (-3.50185 -3.50185 -9.36715e+06) (-3.5823 -3.5823 -9.14733e+06) (-3.00319 -3.00319 -8.93738e+06) (-4.99406 -4.99406 -8.73714e+06)
3150          (4.83488 4.83488 -6.92946e+06) (2.70131 2.70131 -1.09006e+07) (1.89072 1.89072 -1.06185e+07) (0.670721 0.670721 -1.03473e+07) (-0.48963 -0.48963 -1.00869e+07) (-1.73413 -1.73413 -9.83688e+06) (-2.77226 -2.77226 -9.59687e+06) (-3.50185 -3.50185 -9.36715e+06) (-3.5823 -3.5823 -9.14733e+06) (-3.00319 -3.00319 -8.93738e+06) (-4.99406 -4.99406 -8.73714e+06)
3200          (4.83488 4.83488 -6.92946e+06) (2.70131 2.70131 -1.09006e+07) (1.89072 1.89072 -1.06185e+07) (0.670721 0.670721 -1.03473e+07) (-0.48963 -0.48963 -1.00869e+07) (-1.73413 -1.73413 -9.83688e+06) (-2.77226 -2.77226 -9.59687e+06) (-3.50185 -3.50185 -9.36715e+06) (-3.5823 -3.5823 -9.14733e+06) (-3.00319 -3.00319 -8.93738e+06) (-4.99406 -4.99406 -8.73714e+06)
3250          (4.83488 4.83488 -6.92946e+06) (2.70131 2.70131 -1.09006e+07) (1.89072 1.89072 -1.06185e+07) (0.670721 0.670721 -1.03473e+07) (-0.48963 -0.48963 -1.00869e+07) (-1.73413 -1.73413 -9.83688e+06) (-2.77226 -2.77226 -9.59687e+06) (-3.50185 -3.50185 -9.36715e+06) (-3.5823 -3.5823 -9.14733e+06) (-3.00319 -3.00319 -8.93738e+06) (-4.99406 -4.99406 -8.73714e+06)
3300          (4.83488 4.83488 -6.92946e+06) (2.70131 2.70131 -1.09006e+07) (1.89072 1.89072 -1.06185e+07) (0.670721 0.670721 -1.03473e+07) (-0.48963 -0.48963 -1.00869e+07) (-1.73413 -1.73413 -9.83688e+06) (-2.77226 -2.77226 -9.59687e+06) (-3.50185 -3.50185 -9.36715e+06) (-3.5823 -3.5823 -9.14733e+06) (-3.00319 -3.00319 -8.93738e+06) (-4.99406 -4.99406 -8.73714e+06)
3350          (4.83488 4.83488 -6.92946e+06) (2.70131 2.70131 -1.09006e+07) (1.89072 1.89072 -1.06185e+07) (0.670721 0.670721 -1.03473e+07) (-0.48963 -0.48963 -1.00869e+07) (-1.73413 -1.73413 -9.83688e+06) (-2.77226 -2.77226 -9.59687e+06) (-3.50185 -3.50185 -9.36715e+06) (-3.5823 -3.5823 -9.14733e+06) (-3.00319 -3.00319 -8.93738e+06) (-4.99406 -4.99406 -8.73714e+06)
3400          (4.83488 4.83488 -6.92946e+06) (2.70131 2.70131 -1.09006e+07) (1.89072 1.89072 -1.06185e+07) (0.670721 0.670721 -1.03473e+07) (-0.48963 -0.48963 -1.00869e+07) (-1.73413 -1.73413 -9.83688e+06) (-2.77226 -2.77226 -9.59687e+06) (-3.50185 -3.50185 -9.36715e+06) (-3.5823 -3.5823 -9.14733e+06) (-3.00319 -3.00319 -8.93738e+06) (-4.99406 -4.99406 -8.73714e+06)
3450          (4.83488 4.83488 -6.92946e+06) (2.70131 2.70131 -1.09006e+07) (1.89072 1.89072 -1.06185e+07) (0.670721 0.670721 -1.03473e+07) (-0.48963 -0.48963 -1.00869e+07) (-1.73413 -1.73413 -9.83688e+06) (-2.77226 -2.77226 -9.59687e+06) (-3.50185 -3.50185 -9.36715e+06) (-3.5823 -3.5823 -9.14733e+06) (-3.00319 -3.00319 -8.93738e+06) (-4.99406 -4.99406 -8.73714e+06)
3500          (4.83488 4.83488 -6.92946e+06) (2.70131 2.70131 -1.09006e+07) (1.89072 1.89072 -1.06185e+07) (0.670721 0.670721 -1.03473e+07) (-0.48963 -0.48963 -1.00869e+07) (-1.73413 -1.73413 -9.83688e+06) (-2.77226 -2.77226 -9.59687e+06) (-3.50185 -3.50185 -9.36715e+06) (-3.5823 -3.5823 -9.14733e+06) (-3.00319 -3.00319 -8.93738e+06) (-4.99406 -4.99406 -8.73714e+06)
3550          (4.83488 4.83488 -6.92946e+06) (2.70131 2.70131 -1.09006e+07) (1.89072 1.89072 -1.06185e+07) (0.670721 0.670721 -1.03473e+07) (-0.48963 -0.48963 -1.00869e+07) (-1.73413 -1.73413 -9.83688e+06) (-2.77226 -2.77226 -9.59687e+06) (-3.50185 -3.50185 -9.36715e+06) (-3.5823 -3.5823 -9.14733e+06) (-3.00319 -3.00319 -8.93738e+06) (-4.99406 -4.99406 -8.73714e+06)
3600          (4.83488 4.83488 -6.92946e+06) (2.70131 2.70131 -1.09006e+07) (1.89072 1.89072 -1.06185e+07) (0.670721 0.670721 -1.03473e+07) (-0.48963 -0.48963 -1.00869e+07) (-1.73413 -1.73413 -9.83688e+06) (-2.77226 -2.77226 -9.59687e+06) (-3.50185 -3.50185 -9.36715e+06) (-3.5823 -3.5823 -9.14733e+06) (-3.00319 -3.00319 -8.93738e+06) (-4.99406 -4.99406 -8.73714e+06)
3650          (4.83488 4.83488 -6.92946e+06) (2.70131 2.70131 -1.09006e+07) (1.89072 1.89072 -1.06185e+07) (0.670721 0.670721 -1.03473e+07) (-0.48963 -0.48963 -1.00869e+07) (-1.73413 -1.73413 -9.83688e+06) (-2.77226 -2.77226 -9.59687e+06) (-3.50185 -3.50185 -9.36715e+06) (-3.5823 -3.5823 -9.14733e+06) (-3.00319 -3.00319 -8.93738e+06) (-4.99406 -4.99406 -8.73714e+06)
3700          (4.83488 4.83488 -6.92946e+06) (2.70131 2.70131 -1.09006e+07) (1.89072 1.89072 -1.06185e+07) (0.670721 0.670721 -1.03473e+07) (-0.48963 -0.48963 -1.00869e+07) (-1.73413 -1.73413 -9.83688e+06) (-2.77226 -2.77226 -9.59687e+06) (-3.50185 -3.50185 -9.36715e+06) (-3.5823 -3.5823 -9.14733e+06) (-3.00319 -3.00319 -8.93738e+06) (-4.99406 -4.99406 -8.73714e+06)
3750          (4.83488 4.83488 -6.92946e+06) (2.70131 2.70131 -1.09006e+07) (1.89072 1.89072 -1.06185e+07) (0.670721 0.670721 -1.03473e+07) (-0.48963 -0.48963 -1.00869e+07) (-1.73413 -1.73413 -9.83688e+06) (-2.77226 -2.77226 -9.59687e+06) (-3.50185 -3.50185 -9.36715e+06) (-3.5823 -3.5823 -9.14733e+06) (-3.00319 -3.00319 -8.93738e+06) (-4.99406 -4.99406 -8.73714e+06)
3800          (4.83488 4.83488 -6.92946e+06) (2.70131 2.70131 -1.09006e+07) (1.89072 1.89072 -1.06185e+07) (0.670721 0.670721 -1.03473e+07) (-0.48963 -0.48963 -1.00869e+07) (-1.73413 -1.73413 -9.83688e+06) (-2.77226 -2.77226 -9.59687e+06) (-3.50185 -3.50185 -9.36715e+06) (-3.5823 -3.5823 -9.14733e+06) (-3.00319 -3.00319 -8.93738e+06) (-4.99406 -4.99406 -8.73714e+06)
3850          (4.83488 4.83488 -6.92946e+06) (2.70131 2.70131 -1.09006e+07) (1.89072 1.89072 -1.06185e+07) (0.670721 0.670721 -1.03473e+07) (-0.48963 -0.48963 -1.00869e+07) (-1.73413 -1.73413 -9.83688e+06) (-2.77226 -2.77226 -9.59687e+06) (-3.50185 -3.50185 -9.36715e+06) (-3.5823 -3.5823 -9.14733e+06) (-3.00319 -3.00319 -8.93738e+06) (-4.99406 -4.99406 -8.73714e+06)
3900          (4.83488 4.83488 -6.92946e+06) (2.70131 2.70131 -1.09006e+07) (1.89072 1.89072 -1.06185e+07) (0.670721 0.670721 -1.03473e+07) (-0.48963 -0.48963 -1.00869e+07) (-1.73413 -1.73413 -9.83688e+06) (-2.77226 -2.77226 -9.59687e+06) (-3.50185 -3.50185 -9.36715e+06) (-3.5823 -3.5823 -9.14733e+06) (-3.00319 -3.00319 -8.93738e+06) (-4.99406 -4.99406 -8.73714e+06)
3950          (4.83488 4.83488 -6.92946e+06) (2.70131 2.70131 -1.09006e+07) (1.89072 1.89072 -1.06185e+07) (0.670721 0.670721 -1.03473e+07) (-0.48963 -0.48963 -1.00869e+07) (-1.73413 -1.73413 -9.83688e+06) (-2.77226 -2.77226 -9.59687e+06) (-3.50185 -3.50185 -9.36715e+06) (-3.5823 -3.5823 -9.14733e+06) (-3.00319 -3.00319 -8.93738e+06) (-4.99406 -4.99406 -8.73714e+06)