# Probe 0 (0.0015 0.0015 0)
# Probe 1 (0.0015 0.0015 0.002)
# Probe 2 (0.0015 0.0015 0.004)
# Probe 3 (0.0015 0.0015 0.006)
# Probe 4 (0.0015 0.0015 0.008)
# Probe 5 (0.0015 0.0015 0.01)
# Probe 6 (0.0015 0.0015 0.012)
# Probe 7 (0.0015 0.0015 0.014)
# Probe 8 (0.0015 0.0015 0.016)
# Probe 9 (0.0015 0.0015 0.018)
# Probe 10 (0.0015 0.0015 0.02)
# Time        0             1             2             3             4             5             6             7             8             9             10           
50            (0.0377435 0.0377435 12397.5) (0.0198724 0.0198724 13384.7) (-0.00350919 -0.00350919 10620.3) (-0.0184405 -0.0184405 7528.19) (-0.0202777 -0.0202777 4961.65) (-0.0181034 -0.0181034 3313.15) (-0.0137226 -0.0137226 2556.43) (-0.0106482 -0.0106482 2534.21) (-0.00323098 -0.00323098 3110.09) (0.000585565 0.000585565 4166.23) (0.00405001 0.00405001 5508.42)
100           (0.0291977 0.0291977 8633.02) (0.0336333 0.0336333 10692) (0.0223466 0.0223466 9695.74) (0.00947603 0.00947603 8404.82) (-0.00614973 -0.00614973 6975.21) (-0.0169241 -0.0169241 5643.57) (-0.019903 -0.019903 4633.43) (-0.0172958 -0.0172958 4063.51) (-0.0133893 -0.0133893 3927.14) (-0.00331661 -0.00331661 4123.43) (0.00197473 0.00197473 4473.21)
150           (0.0372673 0.0372673 7147.98) (0.0106831 0.0106831 9467.54) (0.0124204 0.0124204 8905.81) (0.00176482 0.00176482 8200.67) (-0.00736536 -0.00736536 7388.22) (-0.0152582 -0.0152582 6535.2) (-0.019869 -0.019869 5733.74) (-0.0187262 -0.0187262 5078.7) (-0.0138968 -0.0138968 4633.1) (-0.0133765 -0.0133765 4404.6) (0.00320433 0.00320433 4337.83)
200           (0.011091 0.011091 6390.53) (0.00724154 0.00724154 8816.81) (0.010278 0.010278 8420.6) (0.00671004 0.00671004 7945.85) (0.00378064 0.00378064 7403.47) (0.000456045 0.000456045 6815.29) (-0.00285458 -0.00285458 6215.17) (-0.0051412 -0.0051412 5647.35) (-0.00689876 -0.00689876 5158) (-0.00753148 -0.00753148 4783.88) (-0.00313148 -0.00313148 4541.3)
250           (-0.00297492 -0.00297492 5944.71) (-0.00238768 -0.00238768 8424.68) (-0.00316798 -0.00316798 8106.35) (-0.0029323 -0.0029323 7741.16) (-0.0022894 -0.0022894 7332.54) (-0.00117694 -0.00117694 6888.76) (0.000356266 0.000356266 6423.62) (0.00206547 0.00206547 5957.73) (0.00341168 0.00341168 5517.41) (0.00284278 0.00284278 5134.03) (-0.000311515 -0.000311515 4844.03)
300           (-0.00160572 -0.00160572 5656.29) (-0.00123513 -0.00123513 8167.03) (-0.001825 -0.001825 7891.43) (-0.00179896 -0.00179896 7586.53) (-0.00160236 -0.00160236 7253.42) (-0.00119577 -0.00119577 6895.67) (-0.000563532 -0.000563532 6519.85) (0.000277434 0.000277434 6136.87) (0.0012411 0.0012411 5762.19) (0.00150148 0.00150148 5418.04) (0.00191897 0.00191897 5138.49)
350           (6.95779e-05 6.95778e-05 5458.11) (-0.000167823 -0.000167823 7988.5) (-0.000727854 -0.000727853 7739.17) (-0.000880918 -0.000880918 7471.53) (-0.000974547 -0.000974547 7185.89) (-0.000979624 -0.000979624 6884.08) (-0.00086915 -0.00086915 6569.7) (-0.000609509 -0.000609509 6249.42) (-0.000156301 -0.000156301 5933.01) (6.27559e-05 6.27559e-05 5635.91) (0.0010321 0.0010321 5384.65)
400           (-0.0175083 -0.0175083 5317.42) (-0.00810022 -0.00810022 7861.19) (-0.00672527 -0.00672527 7629.39) (-0.00488226 -0.00488226 7386.68) (-0.00264555 -0.00264555 7133.12) (-2.6334e-05 -2.63341e-05 6869.82) (0.00290396 0.00290396 6598.99) (0.00603436 0.00603436 6325.09) (0.00921929 0.00921929 6054.71) (0.012031 0.012031 5798.63) (0.0243663 0.0243663 5576.34)
450           (-0.00768081 -0.00768081 5216.02) (0.00205203 0.00205203 7769.29) (0.00199554 0.00199554 7549.8) (0.00109663 0.00109663 7324.57) (-0.000204926 -0.000204926 7093.63) (-0.00107095 -0.00107095 6857.67) (-0.000497027 -0.000497027 6618.15) (0.00226261 0.00226261 6378.24) (0.00713575 0.00713575 6142.48) (0.0129105 0.0129105 5918.47) (0.0282923 0.0282923 5720.2)
500           (-0.00427365 -0.00427365 5142.54) (0.00223045 0.00223045 7702.66) (0.00115217 0.00115217 7491.99) (-0.000224495 -0.000224495 7279.32) (-0.00120361 -0.00120361 7064.62) (-0.00113417 -0.00113417 6848.36) (0.000302836 0.000302836 6631.48) (0.00296334 0.00296334 6416.31) (0.00627115 0.00627115 6206.01) (0.00937884 0.00937884 6005.96) (0.0197212 0.0197212 5826.13)
550           (-0.00298413 -0.00298413 5089.24) (0.001752 0.001752 7654.33) (0.000867267 0.000867267 7450.06) (-0.000191468 -0.000191468 7246.48) (-0.000896594 -0.000896594 7043.53) (-0.000784923 -0.000784923 6841.52) (0.000326239 0.000326239 6641.04) (0.00227862 0.00227862 6443.81) (0.00463341 0.00463341 6252.03) (0.00680207 0.00680207 6069.5) (0.0142801 0.0142801 5903.3)
600           (-0.00214083 -0.00214083 5050.62) (0.00135971 0.00135971 7619.32) (0.000696407 0.000696407 7419.69) (-7.83724e-05 -7.83724e-05 7222.71) (-0.000593439 -0.000593439 7028.28) (-0.00051428 -0.00051428 6836.58) (0.000287476 0.000287476 6647.97) (0.00169318 0.00169318 6463.71) (0.00338414 0.00338414 6285.32) (0.00493655 0.00493655 6115.48) (0.0103444 0.0103444 5959.21)
650           (-0.0339048 -0.0339048 5022.71) (-0.0090675 -0.0090675 7594.01) (-0.00643515 -0.00643515 7397.74) (-0.00383135 -0.00383135 7205.54) (-0.000227955 -0.000227955 7017.28) (0.00517787 0.00517787 6833.05) (0.0123936 0.0123936 6653.01) (0.0206072 0.0206072 6478.11) (0.0289147 0.0289147 6309.37) (0.0366754 0.0366754 6148.68) (0.0623665 0.0623665 5999.56)
700           (-0.017783 -0.017783 5002.52) (-0.00285981 -0.00285981 7575.84) (-0.00726958 -0.00726958 7381.85) (-0.000163685 -0.000163685 7193.22) (2.35213e-05 2.35213e-05 7009.35) (0.00324747 0.00324747 6830.52) (0.00670968 0.00670968 6656.68) (0.00754882 0.00754882 6488.48) (0.0113534 0.0113534 6326.73) (0.011594 0.011594 6172.58) (0.0217812 0.0217812 6028.65)
750           (-0.00452421 -0.00452421 4987.98) (-0.00341966 -0.00341966 7562.71) (-0.0105257 -0.0105257 7370.44) (-0.00543626 -0.00543626 7184.32) (-0.00649916 -0.00649916 7003.68) (-0.00562619 -0.00562619 6828.71) (-0.00326257 -0.00326257 6659.34) (-0.00390977 -0.00390977 6495.98) (-0.000906397 -0.000906397 6339.23) (-0.00127778 -0.00127778 6189.81) (-0.00308827 -0.00308827 6049.59)
800           (-0.0269455 -0.0269455 4977.56) (-1.85379e-05 -1.85379e-05 7553.29) (-0.0134229 -0.0134229 7362.24) (-0.000127253 -0.000127252 7177.94) (0.00112449 0.00112449 6999.6) (0.00666032 0.00666032 6827.41) (0.014002 0.014002 6661.26) (0.0149114 0.0149114 6501.36) (0.0219518 0.0219518 6348.2) (-0.00468561 -0.00468561 6202.2) (0.0460645 0.0460645 6064.58)
850           (-0.00990983 -0.00990983 4970.12) (0.00793346 0.00793346 7546.53) (-0.00438904 -0.00438904 7356.38) (0.00609878 0.00609878 7173.36) (0.00250821 0.00250821 6996.63) (0.00475713 0.00475713 6826.46) (0.00622558 0.00622558 6662.55) (0.00489983 0.00489983 6505.17) (0.00690727 0.00690727 6354.57) (0.00411983 0.00411983 6210.96) (0.0114954 0.0114954 6075.34)
900           (-0.0149848 -0.0149848 4965.06) (-0.0118461 -0.0118461 7541.64) (-0.00257207 -0.00257207 7352.52) (-0.00516318 -0.00516318 7170.06) (0.00359121 0.00359121 6994.68) (0.0024605 0.0024605 6825.75) (0.00862573 0.00862573 6663.46) (0.00899884 0.00899884 6507.81) (0.0102496 0.0102496 6358.97) (0.0108374 0.0108374 6217.1) (0.0140588 0.0140588 6082.83)
950           (0.0192428 0.0192428 4961.2) (0.0211923 0.0211923 7538.32) (0.0197636 0.0197636 7349.52) (0.0168075 0.0168075 7167.82) (0.0148485 0.0148485 6993.21) (0.00840026 0.00840026 6825.38) (0.00255423 0.00255423 6664.22) (-0.0062628 -0.0062628 6509.86) (-0.0152661 -0.0152661 6362.32) (-0.0256641 -0.0256641 6221.64) (-0.0237137 -0.0237137 6088.4)
1000          (-0.00105989 -0.00105989 4958.63) (0.00207953 0.00207953 7535.92) (0.00348864 0.00348864 7347.44) (0.00347594 0.00347593 7166.2) (0.00324538 0.00324538 6992.12) (0.00291773 0.00291773 6825) (0.00341204 0.00341204 6664.63) (0.000443257 0.000443257 6511.12) (0.00150288 0.00150288 6364.53) (-0.000453215 -0.000453215 6224.76) (0.00286487 0.00286487 6092.15)
1050          (0.00680967 0.00680967 4956.71) (0.00560696 0.00560696 7534.22) (0.00395879 0.00395879 7345.91) (0.00520276 0.00520276 7165.06) (0.00231165 0.00231165 6991.35) (0.000103633 0.000103633 6824.75) (0.00173254 0.00173254 6665) (-0.00629535 -0.00629535 6512.07) (-0.000372655 -0.000372655 6366.24) (-0.00969522 -0.00969522 6227) (-0.00836848 -0.00836848 6094.93)
1100          (0.00309063 0.00309063 4955.49) (0.00332131 0.00332131 7533.1) (0.00300006 0.00300006 7344.94) (0.0029018 0.0029018 7164.26) (0.00229866 0.00229866 6990.85) (0.00208542 0.00208542 6824.58) (0.00115347 0.00115347 6665.15) (0.000622131 0.000622131 6512.74) (0.000298783 0.000298783 6367.23) (-0.00240525 -0.00240525 6228.5) (0.000226169 0.000226169 6096.73)
1150          (0.00429476 0.00429476 4954.59) (0.00384179 0.00384179 7532.28) (0.0023215 0.0023215 7344.22) (0.00257336 0.00257336 7163.69) (-0.000136866 -0.000136866 6990.44) (-0.000113506 -0.000113506 6824.43) (-0.00216205 -0.00216205 6665.26) (-0.00323182 -0.00323182 6513.16) (0.000252383 0.000252383 6368.03) (-0.00807068 -0.00807068 6229.52) (-0.000530511 -0.000530511 6098.1)
1200          (-0.00233572 -0.00233572 4954) (-0.00162637 -0.00162637 7531.74) (-0.00074291 -0.00074291 7343.77) (-0.000766639 -0.000766639 7163.32) (0.000283013 0.000283013 6990.24) (0.000435208 0.000435208 6824.36) (0.000836408 0.000836408 6665.39) (0.00230683 0.00230683 6513.52) (0.00065822 0.00065822 6368.51) (0.00228213 0.00228213 6230.35) (0.00219789 0.00219789 6099)
1250          (-0.00983837 -0.00983837 4953.62) (-0.00640703 -0.00640703 7531.4) (-0.00550497 -0.00550497 7343.46) (-0.00191593 -0.00191593 7163.1) (-0.000654512 -0.000654512 6990.08) (0.00318483 0.00318483 6824.32) (0.00586605 0.00586605 6665.48) (0.00411062 0.00411062 6513.68) (0.0110379 0.0110379 6368.93) (0.00754074 0.00754074 6230.88) (0.00713507 0.00713507 6099.63)
1300          (-0.00233674 -0.00233674 4953.47) (0.0027437 0.0027437 7531.26) (0.00252483 0.00252483 7343.34) (0.00593502 0.00593502 7163) (0.00524901 0.00524901 6990.02) (0.00803231 0.00803231 6824.31) (0.00855398 0.00855398 6665.51) (0.00353868 0.00353868 6513.77) (0.0114158 0.0114158 6369.07) (0.00531471 0.00531471 6231.09) (0.00714156 0.00714156 6099.87)
1350          (-0.00364161 -0.00364161 4953.37) (-0.00203461 -0.00203461 7531.17) (-0.00142409 -0.00142409 7343.26) (-0.000505185 -0.000505185 7162.9) (0.000368788 0.000368788 6989.95) (0.00130614 0.00130614 6824.23) (0.00208806 0.00208806 6665.46) (0.00263758 0.00263758 6513.81) (0.00269818 0.00269818 6369.06) (0.00226199 0.00226199 6231.18) (0.0037615 0.0037615 6100.07)
1400          (-0.00364161 -0.00364161 4953.37) (-0.00203461 -0.00203461 7531.17) (-0.00142409 -0.00142409 7343.26) (-0.000505185 -0.000505185 7162.9) (0.000368788 0.000368788 6989.95) (0.00130614 0.00130614 6824.23) (0.00208806 0.00208806 6665.46) (0.00263758 0.00263758 6513.81) (0.00269818 0.00269818 6369.06) (0.00226199 0.00226199 6231.18) (0.0037615 0.0037615 6100.07)
1450          (-0.00364161 -0.00364161 4953.37) (-0.00203461 -0.00203461 7531.17) (-0.00142409 -0.00142409 7343.26) (-0.000505185 -0.000505185 7162.9) (0.000368788 0.000368788 6989.95) (0.00130614 0.00130614 6824.23) (0.00208806 0.00208806 6665.46) (0.00263758 0.00263758 6513.81) (0.00269818 0.00269818 6369.06) (0.00226199 0.00226199 6231.18) (0.0037615 0.0037615 6100.07)
1500          (-0.00364161 -0.00364161 4953.37) (-0.00203461 -0.00203461 7531.17) (-0.00142409 -0.00142409 7343.26) (-0.000505185 -0.000505185 7162.9) (0.000368788 0.000368788 6989.95) (0.00130614 0.00130614 6824.23) (0.00208806 0.00208806 6665.46) (0.00263758 0.00263758 6513.81) (0.00269818 0.00269818 6369.06) (0.00226199 0.00226199 6231.18) (0.0037615 0.0037615 6100.07)
1550          (-0.00364161 -0.00364161 4953.37) (-0.00203461 -0.00203461 7531.17) (-0.00142409 -0.00142409 7343.26) (-0.000505185 -0.000505185 7162.9) (0.000368788 0.000368788 6989.95) (0.00130614 0.00130614 6824.23) (0.00208806 0.00208806 6665.46) (0.00263758 0.00263758 6513.81) (0.00269818 0.00269818 6369.06) (0.00226199 0.00226199 6231.18) (0.0037615 0.0037615 6100.07)
1600          (-0.00364161 -0.00364161 4953.37) (-0.00203461 -0.00203461 7531.17) (-0.00142409 -0.00142409 7343.26) (-0.000505185 -0.000505185 7162.9) (0.000368788 0.000368788 6989.95) (0.00130614 0.00130614 6824.23) (0.00208806 0.00208806 6665.46) (0.00263758 0.00263758 6513.81) (0.00269818 0.00269818 6369.06) (0.00226199 0.00226199 6231.18) (0.0037615 0.0037615 6100.07)
1650          (-0.00364161 -0.00364161 4953.37) (-0.00203461 -0.00203461 7531.17) (-0.00142409 -0.00142409 7343.26) (-0.000505185 -0.000505185 7162.9) (0.000368788 0.000368788 6989.95) (0.00130614 0.00130614 6824.23) (0.00208806 0.00208806 6665.46) (0.00263758 0.00263758 6513.81) (0.00269818 0.00269818 6369.06) (0.00226199 0.00226199 6231.18) (0.0037615 0.0037615 6100.07)
1700          (-0.00364161 -0.00364161 4953.37) (-0.00203461 -0.00203461 7531.17) (-0.00142409 -0.00142409 7343.26) (-0.000505185 -0.000505185 7162.9) (0.000368788 0.000368788 6989.95) (0.00130614 0.00130614 6824.23) (0.00208806 0.00208806 6665.46) (0.00263758 0.00263758 6513.81) (0.00269818 0.00269818 6369.06) (0.00226199 0.00226199 6231.18) (0.0037615 0.0037615 6100.07)
1750          (-0.00364161 -0.00364161 4953.37) (-0.00203461 -0.00203461 7531.17) (-0.00142409 -0.00142409 7343.26) (-0.000505185 -0.000505185 7162.9) (0.000368788 0.000368788 6989.95) (0.00130614 0.00130614 6824.23) (0.00208806 0.00208806 6665.46) (0.00263758 0.00263758 6513.81) (0.00269818 0.00269818 6369.06) (0.00226199 0.00226199 6231.18) (0.0037615 0.0037615 6100.07)
1800          (-0.00364161 -0.00364161 4953.37) (-0.00203461 -0.00203461 7531.17) (-0.00142409 -0.00142409 7343.26) (-0.000505185 -0.000505185 7162.9) (0.000368788 0.000368788 6989.95) (0.00130614 0.00130614 6824.23) (0.00208806 0.00208806 6665.46) (0.00263758 0.00263758 6513.81) (0.00269818 0.00269818 6369.06) (0.00226199 0.00226199 6231.18) (0.0037615 0.0037615 6100.07)
1850          (-0.00364161 -0.00364161 4953.37) (-0.00203461 -0.00203461 7531.17) (-0.00142409 -0.00142409 7343.26) (-0.000505185 -0.000505185 7162.9) (0.000368788 0.000368788 6989.95) (0.00130614 0.00130614 6824.23) (0.00208806 0.00208806 6665.46) (0.00263758 0.00263758 6513.81) (0.00269818 0.00269818 6369.06) (0.00226199 0.00226199 6231.18) (0.0037615 0.0037615 6100.07)
1900          (-0.00364161 -0.00364161 4953.37) (-0.00203461 -0.00203461 7531.17) (-0.00142409 -0.00142409 7343.26) (-0.000505185 -0.000505185 7162.9) (0.000368788 0.000368788 6989.95) (0.00130614 0.00130614 6824.23) (0.00208806 0.00208806 6665.46) (0.00263758 0.00263758 6513.81) (0.00269818 0.00269818 6369.06) (0.00226199 0.00226199 6231.18) (0.0037615 0.0037615 6100.07)
1950          (-0.00364161 -0.00364161 4953.37) (-0.00203461 -0.00203461 7531.17) (-0.00142409 -0.00142409 7343.26) (-0.000505185 -0.000505185 7162.9) (0.000368788 0.000368788 6989.95) (0.00130614 0.00130614 6824.23) (0.00208806 0.00208806 6665.46) (0.00263758 0.00263758 6513.81) (0.00269818 0.00269818 6369.06) (0.00226199 0.00226199 6231.18) (0.0037615 0.0037615 6100.07)
2000          (-0.00364161 -0.00364161 4953.37) (-0.00203461 -0.00203461 7531.17) (-0.00142409 -0.00142409 7343.26) (-0.000505185 -0.000505185 7162.9) (0.000368788 0.000368788 6989.95) (0.00130614 0.00130614 6824.23) (0.00208806 0.00208806 6665.46) (0.00263758 0.00263758 6513.81) (0.00269818 0.00269818 6369.06) (0.00226199 0.00226199 6231.18) (0.0037615 0.0037615 6100.07)
2050          (-0.00364161 -0.00364161 4953.37) (-0.00203461 -0.00203461 7531.17) (-0.00142409 -0.00142409 7343.26) (-0.000505185 -0.000505185 7162.9) (0.000368788 0.000368788 6989.95) (0.00130614 0.00130614 6824.23) (0.00208806 0.00208806 6665.46) (0.00263758 0.00263758 6513.81) (0.00269818 0.00269818 6369.06) (0.00226199 0.00226199 6231.18) (0.0037615 0.0037615 6100.07)
2100          (-0.00364161 -0.00364161 4953.37) (-0.00203461 -0.00203461 7531.17) (-0.00142409 -0.00142409 7343.26) (-0.000505185 -0.000505185 7162.9) (0.000368788 0.000368788 6989.95) (0.00130614 0.00130614 6824.23) (0.00208806 0.00208806 6665.46) (0.00263758 0.00263758 6513.81) (0.00269818 0.00269818 6369.06) (0.00226199 0.00226199 6231.18) (0.0037615 0.0037615 6100.07)
2150          (-0.00364161 -0.00364161 4953.37) (-0.00203461 -0.00203461 7531.17) (-0.00142409 -0.00142409 7343.26) (-0.000505185 -0.000505185 7162.9) (0.000368788 0.000368788 6989.95) (0.00130614 0.00130614 6824.23) (0.00208806 0.00208806 6665.46) (0.00263758 0.00263758 6513.81) (0.00269818 0.00269818 6369.06) (0.00226199 0.00226199 6231.18) (0.0037615 0.0037615 6100.07)
2200          (-0.00364161 -0.00364161 4953.37) (-0.00203461 -0.00203461 7531.17) (-0.00142409 -0.00142409 7343.26) (-0.000505185 -0.000505185 7162.9) (0.000368788 0.000368788 6989.95) (0.00130614 0.00130614 6824.23) (0.00208806 0.00208806 6665.46) (0.00263758 0.00263758 6513.81) (0.00269818 0.00269818 6369.06) (0.00226199 0.00226199 6231.18) (0.0037615 0.0037615 6100.07)
2250          (-0.00364161 -0.00364161 4953.37) (-0.00203461 -0.00203461 7531.17) (-0.00142409 -0.00142409 7343.26) (-0.000505185 -0.000505185 7162.9) (0.000368788 0.000368788 6989.95) (0.00130614 0.00130614 6824.23) (0.00208806 0.00208806 6665.46) (0.00263758 0.00263758 6513.81) (0.00269818 0.00269818 6369.06) (0.00226199 0.00226199 6231.18) (0.0037615 0.0037615 6100.07)
2300          (-0.00364161 -0.00364161 4953.37) (-0.00203461 -0.00203461 7531.17) (-0.00142409 -0.00142409 7343.26) (-0.000505185 -0.000505185 7162.9) (0.000368788 0.000368788 6989.95) (0.00130614 0.00130614 6824.23) (0.00208806 0.00208806 6665.46) (0.00263758 0.00263758 6513.81) (0.00269818 0.00269818 6369.06) (0.00226199 0.00226199 6231.18) (0.0037615 0.0037615 6100.07)
2350          (-0.00364161 -0.00364161 4953.37) (-0.00203461 -0.00203461 7531.17) (-0.00142409 -0.00142409 7343.26) (-0.000505185 -0.000505185 7162.9) (0.000368788 0.000368788 6989.95) (0.00130614 0.00130614 6824.23) (0.00208806 0.00208806 6665.46) (0.00263758 0.00263758 6513.81) (0.00269818 0.00269818 6369.06) (0.00226199 0.00226199 6231.18) (0.0037615 0.0037615 6100.07)
2400          (-0.00364161 -0.00364161 4953.37) (-0.00203461 -0.00203461 7531.17) (-0.00142409 -0.00142409 7343.26) (-0.000505185 -0.000505185 7162.9) (0.000368788 0.000368788 6989.95) (0.00130614 0.00130614 6824.23) (0.00208806 0.00208806 6665.46) (0.00263758 0.00263758 6513.81) (0.00269818 0.00269818 6369.06) (0.00226199 0.00226199 6231.18) (0.0037615 0.0037615 6100.07)
2450          (-0.00364161 -0.00364161 4953.37) (-0.00203461 -0.00203461 7531.17) (-0.00142409 -0.00142409 7343.26) (-0.000505185 -0.000505185 7162.9) (0.000368788 0.000368788 6989.95) (0.00130614 0.00130614 6824.23) (0.00208806 0.00208806 6665.46) (0.00263758 0.00263758 6513.81) (0.00269818 0.00269818 6369.06) (0.00226199 0.00226199 6231.18) (0.0037615 0.0037615 6100.07)
2500          (-0.00364161 -0.00364161 4953.37) (-0.00203461 -0.00203461 7531.17) (-0.00142409 -0.00142409 7343.26) (-0.000505185 -0.000505185 7162.9) (0.000368788 0.000368788 6989.95) (0.00130614 0.00130614 6824.23) (0.00208806 0.00208806 6665.46) (0.00263758 0.00263758 6513.81) (0.00269818 0.00269818 6369.06) (0.00226199 0.00226199 6231.18) (0.0037615 0.0037615 6100.07)
2550          (-0.00364161 -0.00364161 4953.37) (-0.00203461 -0.00203461 7531.17) (-0.00142409 -0.00142409 7343.26) (-0.000505185 -0.000505185 7162.9) (0.000368788 0.000368788 6989.95) (0.00130614 0.00130614 6824.23) (0.00208806 0.00208806 6665.46) (0.00263758 0.00263758 6513.81) (0.00269818 0.00269818 6369.06) (0.00226199 0.00226199 6231.18) (0.0037615 0.0037615 6100.07)
2600          (-0.00364161 -0.00364161 4953.37) (-0.00203461 -0.00203461 7531.17) (-0.00142409 -0.00142409 7343.26) (-0.000505185 -0.000505185 7162.9) (0.000368788 0.000368788 6989.95) (0.00130614 0.00130614 6824.23) (0.00208806 0.00208806 6665.46) (0.00263758 0.00263758 6513.81) (0.00269818 0.00269818 6369.06) (0.00226199 0.00226199 6231.18) (0.0037615 0.0037615 6100.07)
2650          (-0.00364161 -0.00364161 4953.37) (-0.00203461 -0.00203461 7531.17) (-0.00142409 -0.00142409 7343.26) (-0.000505185 -0.000505185 7162.9) (0.000368788 0.000368788 6989.95) (0.00130614 0.00130614 6824.23) (0.00208806 0.00208806 6665.46) (0.00263758 0.00263758 6513.81) (0.00269818 0.00269818 6369.06) (0.00226199 0.00226199 6231.18) (0.0037615 0.0037615 6100.07)
2700          (-0.00364161 -0.00364161 4953.37) (-0.00203461 -0.00203461 7531.17) (-0.00142409 -0.00142409 7343.26) (-0.000505185 -0.000505185 7162.9) (0.000368788 0.000368788 6989.95) (0.00130614 0.00130614 6824.23) (0.00208806 0.00208806 6665.46) (0.00263758 0.00263758 6513.81) (0.00269818 0.00269818 6369.06) (0.00226199 0.00226199 6231.18) (0.0037615 0.0037615 6100.07)
2750          (-0.00364161 -0.00364161 4953.37) (-0.00203461 -0.00203461 7531.17) (-0.00142409 -0.00142409 7343.26) (-0.000505185 -0.000505185 7162.9) (0.000368788 0.000368788 6989.95) (0.00130614 0.00130614 6824.23) (0.00208806 0.00208806 6665.46) (0.00263758 0.00263758 6513.81) (0.00269818 0.00269818 6369.06) (0.00226199 0.00226199 6231.18) (0.0037615 0.0037615 6100.07)
2800          (-0.00364161 -0.00364161 4953.37) (-0.00203461 -0.00203461 7531.17) (-0.00142409 -0.00142409 7343.26) (-0.000505185 -0.000505185 7162.9) (0.000368788 0.000368788 6989.95) (0.00130614 0.00130614 6824.23) (0.00208806 0.00208806 6665.46) (0.00263758 0.00263758 6513.81) (0.00269818 0.00269818 6369.06) (0.00226199 0.00226199 6231.18) (0.0037615 0.0037615 6100.07)
2850          (-0.00364161 -0.00364161 4953.37) (-0.00203461 -0.00203461 7531.17) (-0.00142409 -0.00142409 7343.26) (-0.000505185 -0.000505185 7162.9) (0.000368788 0.000368788 6989.95) (0.00130614 0.00130614 6824.23) (0.00208806 0.00208806 6665.46) (0.00263758 0.00263758 6513.81) (0.00269818 0.00269818 6369.06) (0.00226199 0.00226199 6231.18) (0.0037615 0.0037615 6100.07)
2900          (-0.00364161 -0.00364161 4953.37) (-0.00203461 -0.00203461 7531.17) (-0.00142409 -0.00142409 7343.26) (-0.000505185 -0.000505185 7162.9) (0.000368788 0.000368788 6989.95) (0.00130614 0.00130614 6824.23) (0.00208806 0.00208806 6665.46) (0.00263758 0.00263758 6513.81) (0.00269818 0.00269818 6369.06) (0.00226199 0.00226199 6231.18) (0.0037615 0.0037615 6100.07)
2950          (-0.00364161 -0.00364161 4953.37) (-0.00203461 -0.00203461 7531.17) (-0.00142409 -0.00142409 7343.26) (-0.000505185 -0.000505185 7162.9) (0.000368788 0.000368788 6989.95) (0.00130614 0.00130614 6824.23) (0.00208806 0.00208806 6665.46) (0.00263758 0.00263758 6513.81) (0.00269818 0.00269818 6369.06) (0.00226199 0.00226199 6231.18) (0.0037615 0.0037615 6100.07)
3000          (-0.00364161 -0.00364161 4953.37) (-0.00203461 -0.00203461 7531.17) (-0.00142409 -0.00142409 7343.26) (-0.000505185 -0.000505185 7162.9) (0.000368788 0.000368788 6989.95) (0.00130614 0.00130614 6824.23) (0.00208806 0.00208806 6665.46) (0.00263758 0.00263758 6513.81) (0.00269818 0.00269818 6369.06) (0.00226199 0.00226199 6231.18) (0.0037615 0.0037615 6100.07)
3050          (-0.00364161 -0.00364161 4953.37) (-0.00203461 -0.00203461 7531.17) (-0.00142409 -0.00142409 7343.26) (-0.000505185 -0.000505185 7162.9) (0.000368788 0.000368788 6989.95) (0.00130614 0.00130614 6824.23) (0.00208806 0.00208806 6665.46) (0.00263758 0.00263758 6513.81) (0.00269818 0.00269818 6369.06) (0.00226199 0.00226199 6231.18) (0.0037615 0.0037615 6100.07)
3100          (-0.00364161 -0.00364161 4953.37) (-0.00203461 -0.00203461 7531.17) (-0.00142409 -0.00142409 7343.26) (-0.000505185 -0.000505185 7162.9) (0.000368788 0.000368788 6989.95) (0.00130614 0.00130614 6824.23) (0.00208806 0.00208806 6665.46) (0.00263758 0.00263758 6513.81) (0.00269818 0.00269818 6369.06) (0.00226199 0.00226199 6231.18) (0.0037615 0.0037615 6100.07)
3150          (-0.00364161 -0.00364161 4953.37) (-0.00203461 -0.00203461 7531.17) (-0.00142409 -0.00142409 7343.26) (-0.000505185 -0.000505185 7162.9) (0.000368788 0.000368788 6989.95) (0.00130614 0.00130614 6824.23) (0.00208806 0.00208806 6665.46) (0.00263758 0.00263758 6513.81) (0.00269818 0.00269818 6369.06) (0.00226199 0.00226199 6231.18) (0.0037615 0.0037615 6100.07)
3200          (-0.00364161 -0.00364161 4953.37) (-0.00203461 -0.00203461 7531.17) (-0.00142409 -0.00142409 7343.26) (-0.000505185 -0.000505185 7162.9) (0.000368788 0.000368788 6989.95) (0.00130614 0.00130614 6824.23) (0.00208806 0.00208806 6665.46) (0.00263758 0.00263758 6513.81) (0.00269818 0.00269818 6369.06) (0.00226199 0.00226199 6231.18) (0.0037615 0.0037615 6100.07)
3250          (-0.00364161 -0.00364161 4953.37) (-0.00203461 -0.00203461 7531.17) (-0.00142409 -0.00142409 7343.26) (-0.000505185 -0.000505185 7162.9) (0.000368788 0.000368788 6989.95) (0.00130614 0.00130614 6824.23) (0.00208806 0.00208806 6665.46) (0.00263758 0.00263758 6513.81) (0.00269818 0.00269818 6369.06) (0.00226199 0.00226199 6231.18) (0.0037615 0.0037615 6100.07)
3300          (-0.00364161 -0.00364161 4953.37) (-0.00203461 -0.00203461 7531.17) (-0.00142409 -0.00142409 7343.26) (-0.000505185 -0.000505185 7162.9) (0.000368788 0.000368788 6989.95) (0.00130614 0.00130614 6824.23) (0.00208806 0.00208806 6665.46) (0.00263758 0.00263758 6513.81) (0.00269818 0.00269818 6369.06) (0.00226199 0.00226199 6231.18) (0.0037615 0.0037615 6100.07)
3350          (-0.00364161 -0.00364161 4953.37) (-0.00203461 -0.00203461 7531.17) (-0.00142409 -0.00142409 7343.26) (-0.000505185 -0.000505185 7162.9) (0.000368788 0.000368788 6989.95) (0.00130614 0.00130614 6824.23) (0.00208806 0.00208806 6665.46) (0.00263758 0.00263758 6513.81) (0.00269818 0.00269818 6369.06) (0.00226199 0.00226199 6231.18) (0.0037615 0.0037615 6100.07)
3400          (-0.00364161 -0.00364161 4953.37) (-0.00203461 -0.00203461 7531.17) (-0.00142409 -0.00142409 7343.26) (-0.000505185 -0.000505185 7162.9) (0.000368788 0.000368788 6989.95) (0.00130614 0.00130614 6824.23) (0.00208806 0.00208806 6665.46) (0.00263758 0.00263758 6513.81) (0.00269818 0.00269818 6369.06) (0.00226199 0.00226199 6231.18) (0.0037615 0.0037615 6100.07)
3450          (-0.00364161 -0.00364161 4953.37) (-0.00203461 -0.00203461 7531.17) (-0.00142409 -0.00142409 7343.26) (-0.000505185 -0.000505185 7162.9) (0.000368788 0.000368788 6989.95) (0.00130614 0.00130614 6824.23) (0.00208806 0.00208806 6665.46) (0.00263758 0.00263758 6513.81) (0.00269818 0.00269818 6369.06) (0.00226199 0.00226199 6231.18) (0.0037615 0.0037615 6100.07)
3500          (-0.00364161 -0.00364161 4953.37) (-0.00203461 -0.00203461 7531.17) (-0.00142409 -0.00142409 7343.26) (-0.000505185 -0.000505185 7162.9) (0.000368788 0.000368788 6989.95) (0.00130614 0.00130614 6824.23) (0.00208806 0.00208806 6665.46) (0.00263758 0.00263758 6513.81) (0.00269818 0.00269818 6369.06) (0.00226199 0.00226199 6231.18) (0.0037615 0.0037615 6100.07)
3550          (-0.00364161 -0.00364161 4953.37) (-0.00203461 -0.00203461 7531.17) (-0.00142409 -0.00142409 7343.26) (-0.000505185 -0.000505185 7162.9) (0.000368788 0.000368788 6989.95) (0.00130614 0.00130614 6824.23) (0.00208806 0.00208806 6665.46) (0.00263758 0.00263758 6513.81) (0.00269818 0.00269818 6369.06) (0.00226199 0.00226199 6231.18) (0.0037615 0.0037615 6100.07)
3600          (-0.00364161 -0.00364161 4953.37) (-0.00203461 -0.00203461 7531.17) (-0.00142409 -0.00142409 7343.26) (-0.000505185 -0.000505185 7162.9) (0.000368788 0.000368788 6989.95) (0.00130614 0.00130614 6824.23) (0.00208806 0.00208806 6665.46) (0.00263758 0.00263758 6513.81) (0.00269818 0.00269818 6369.06) (0.00226199 0.00226199 6231.18) (0.0037615 0.0037615 6100.07)
3650          (-0.00364161 -0.00364161 4953.37) (-0.00203461 -0.00203461 7531.17) (-0.00142409 -0.00142409 7343.26) (-0.000505185 -0.000505185 7162.9) (0.000368788 0.000368788 6989.95) (0.00130614 0.00130614 6824.23) (0.00208806 0.00208806 6665.46) (0.00263758 0.00263758 6513.81) (0.00269818 0.00269818 6369.06) (0.00226199 0.00226199 6231.18) (0.0037615 0.0037615 6100.07)
3700          (-0.00364161 -0.00364161 4953.37) (-0.00203461 -0.00203461 7531.17) (-0.00142409 -0.00142409 7343.26) (-0.000505185 -0.000505185 7162.9) (0.000368788 0.000368788 6989.95) (0.00130614 0.00130614 6824.23) (0.00208806 0.00208806 6665.46) (0.00263758 0.00263758 6513.81) (0.00269818 0.00269818 6369.06) (0.00226199 0.00226199 6231.18) (0.0037615 0.0037615 6100.07)
3750          (-0.00364161 -0.00364161 4953.37) (-0.00203461 -0.00203461 7531.17) (-0.00142409 -0.00142409 7343.26) (-0.000505185 -0.000505185 7162.9) (0.000368788 0.000368788 6989.95) (0.00130614 0.00130614 6824.23) (0.00208806 0.00208806 6665.46) (0.00263758 0.00263758 6513.81) (0.00269818 0.00269818 6369.06) (0.00226199 0.00226199 6231.18) (0.0037615 0.0037615 6100.07)
3800          (-0.00364161 -0.00364161 4953.37) (-0.00203461 -0.00203461 7531.17) (-0.00142409 -0.00142409 7343.26) (-0.000505185 -0.000505185 7162.9) (0.000368788 0.000368788 6989.95) (0.00130614 0.00130614 6824.23) (0.00208806 0.00208806 6665.46) (0.00263758 0.00263758 6513.81) (0.00269818 0.00269818 6369.06) (0.00226199 0.00226199 6231.18) (0.0037615 0.0037615 6100.07)
3850          (-0.00364161 -0.00364161 4953.37) (-0.00203461 -0.00203461 7531.17) (-0.00142409 -0.00142409 7343.26) (-0.000505185 -0.000505185 7162.9) (0.000368788 0.000368788 6989.95) (0.00130614 0.00130614 6824.23) (0.00208806 0.00208806 6665.46) (0.00263758 0.00263758 6513.81) (0.00269818 0.00269818 6369.06) (0.00226199 0.00226199 6231.18) (0.0037615 0.0037615 6100.07)
3900          (-0.00364161 -0.00364161 4953.37) (-0.00203461 -0.00203461 7531.17) (-0.00142409 -0.00142409 7343.26) (-0.000505185 -0.000505185 7162.9) (0.000368788 0.000368788 6989.95) (0.00130614 0.00130614 6824.23) (0.00208806 0.00208806 6665.46) (0.00263758 0.00263758 6513.81) (0.00269818 0.00269818 6369.06) (0.00226199 0.00226199 6231.18) (0.0037615 0.0037615 6100.07)