# Probe 0 (0 0 0)
# Time        0            
14            1000         
28            904.737      
42            846.953      
56            803.947      
70            770.149      
84            742.623      
98            719.632      
112           700.06       
126           683.154      
140           668.376      
154           655.334      
168           643.731      
182           633.338      
196           623.975      
210           615.498      
224           607.788      
238           600.75       
252           594.303      
266           588.38       
280           582.923      
294           577.883      
308           573.218      
322           568.892      
336           564.872      
350           561.131      
364           557.644      
378           554.39       
392           551.348      
406           548.502      
420           545.836      
434           543.337      
448           540.991      
462           538.787      
476           536.716      
490           534.767      
504           532.932      
518           531.203      
532           529.574      
546           528.037      
560           526.586      
574           525.217      
588           523.923      
602           522.701      
616           521.545      
630           520.451      
644           519.417      
658           518.438      
672           517.511      
686           516.633      
700           515.801      
714           515.013      
728           514.266      
742           513.557      
756           512.886      
770           512.248      
784           511.644      
798           511.07       
812           510.526      
826           510.009      
840           509.518      
854           509.052      
868           508.61       
882           508.189      
896           507.79       
910           507.41       
924           507.05       
938           506.707      
952           506.382      
966           506.072      
980           505.778      
994           505.498      
1008          505.232      
1022          504.979      
1036          504.739      
1050          504.51       
1064          504.293      
1078          504.086      
1092          503.889      
1106          503.702      
1120          503.524      
1134          503.354      
1148          503.193      
1162          503.04       
1176          502.894      
1190          502.755      
1204          502.623      
1218          502.497      
1232          502.377      
1246          502.263      
1260          502.155      
1274          502.052      
1288          501.953      
1302          501.86       
1316          501.771      
1330          501.686      
1344          501.606      
1358          501.529      
1372          501.456      
1386          501.386      
1400          501.32       
1414          501.257      
1428          501.197      
1442          501.14       
1456          501.085      
1470          501.033      
1484          500.984      
1498          500.937      
1512          500.892      
1526          500.85       
1540          500.809      
1554          500.771      
1568          500.734      
1582          500.699      
1596          500.666      
1610          500.634      
1624          500.604      
1638          500.575      
1652          500.548      
1666          500.521      
1680          500.497      
1694          500.473      
1708          500.45       
1722          500.429      
1736          500.408      
1750          500.389      
1764          500.371      
1778          500.353      
1792          500.336      
1806          500.32       
1820          500.305      
1834          500.29       
1848          500.276      
1862          500.263      
1876          500.251      
1890          500.239      
1904          500.227      
1918          500.217      
1932          500.206      
1946          500.196      
1960          500.187      
1974          500.178      
1988          500.17       
2002          500.162      
2016          500.154      
2030          500.147      
2044          500.14       
2058          500.133      
2072          500.127      
2086          500.121      
2100          500.115      
2114          500.109      
2128          500.104      
2142          500.099      
2156          500.095      
2170          500.09       
2184          500.086      
2198          500.082      
2212          500.078      
2226          500.074      
2240          500.071      
2254          500.067      
2268          500.064      
2282          500.061      
2296          500.058      
2310          500.055      
2324          500.053      
2338          500.05       
2352          500.048      
