# Probe 0 (0.0015 0.0015 0)
# Probe 1 (0.0015 0.0015 0.01)
# Probe 2 (0.0015 0.0015 0.02)
# Probe 3 (0.0015 0.0015 0.03)
# Probe 4 (0.0015 0.0015 0.04)
# Probe 5 (0.0015 0.0015 0.05)
# Probe 6 (0.0015 0.0015 0.06)
# Probe 7 (0.0015 0.0015 0.07)
# Probe 8 (0.0015 0.0015 0.08)
# Probe 9 (0.0015 0.0015 0.09)
# Probe 10 (0.0015 0.0015 0.1)
# Time        0             1             2             3             4             5             6             7             8             9             10           
50            189193        137177        94841.1       75964.4       69406.3       67761.8       67774.7       67783.2       67783         67656.1       41717.2      
100           200086        160731        119822        92402.5       77723.7       71292.2       67773.9       67783.1       67780.4       67181.7       35160.5      
150           204991        172309        135840        107256        88039         76986.7       67849.2       67782.9       67768.4       66363.5       31637        
200           207926        179412        146550        118839        97805.6       83544.8       68090.8       67783.7       67736.9       65316.1       29396.1      
250           209919        184293        154201        127744        106190        90024.7       68571.4       67788.9       67675.9       64151.1       27824.5      
300           211372        187876        159940        134711        113213        96022.2       69325.9       67803.9       67578.4       62946.7       26649.2      
350           212481        190623        164408        140290        119110        101436        70352.6       67836.1       67441.5       61750         25729.5      
400           213358        192803        167994        144866        124119        106280        71622.4       67893.8       67266         60587.8       24985.5      
450           214073        194584        170950        148701        128429        110617        73094.1       67984.8       67055.2       59473.4       24367.9      
500           214669        196074        173441        151975        132187        114513        74720.7       68115.9       66814         58413         23844.9      
550           215177        197345        175580        154816        135503        118037        76459.3       68292.2       66548.3       57408         23394.7      
600           215617        198449        177446        157318        138460        121232        78271.8       68516.6       66264.3       56457.6       23001.8      
650           216004        199422        179097        159546        141121        124148        80126.4       68790.2       65968.2       55559.6       22655.2      
700           216348        200287        180571        161546        143530        126827        81998.7       69112.9       65665.6       54711.2       22346.3      
750           216658        201066        181901        163361        145732        129292        83868.4       69482.7       65361.8       53909.5       22068.9      
800           216938        201773        183111        165017        147753        131575        85720.7       69896.6       65061.4       53151.8       21818        
850           217195        202419        184220        166540        149620        133695        87545         70351.3       64768.5       52435.1       21589.5      
900           217431        203013        185240        167945        151350        135674        89332.8       70842.6       64486.4       51757         21380.5      
950           217648        203562        186185        169249        152961        137524        91078.9       71366.2       64217.8       51115         21188.2      
1000          217850        204071        187062        170463        154466        139260        92780         71918.4       63964.9       50507         21010.6      
1050          218038        204546        187881        171599        155877        140893        94433.4       72495.1       63729.3       49931         20846.1      
1100          218214        204991        188648        172663        157202        142432        96037.7       73092.3       63512.5       49385.2       20693        
1150          218379        205407        189368        173663        158450        143885        97592.3       73706.5       63315.2       48868.1       20550.2      
1200          218533        205798        190043        174603        159627        145263        99097.2       74334.3       63138         48378.2       20416.7      
1250          218679        206166        190680        175492        160741        146567        100552        74972.3       62981.1       47914.2       20291.5      
1300          218818        206513        191284        176333        161795        147805        101959        75617.8       62844.5       47475         20174        
1350          218948        206842        191854        177130        162797        148981        103319        76268.4       62727.9       47059.4       20063.4      
1400          219072        207155        192396        177887        163748        150100        104632        76921.9       62631.1       46666.4       19959.2      
1450          219189        207452        192911        178607        164654        151167        105901        77576.3       62553.5       46295         19860.9      
1500          219301        207735        193400        179292        165517        152185        107125        78229.8       62494.6       45944.3       19768        
1550          219407        208004        193867        179945        166340        153156        108308        78881         62453.6       45613.5       19680.2      
1600          219508        208260        194311        180567        167126        154085        109450        79528.6       62429.9       45301.9       19597.2      
1650          219605        208504        194736        181162        167877        154973        110553        80171.3       62422.7       45008.6       19518.6      
1700          219697        208738        195141        181730        168595        155824        111617        80808.2       62431.2       44733         19444.3      
1750          219785        208961        195529        182274        169282        156638        112645        81438.5       62454.5       44474.4       19373.8      
1800          219870        209175        195900        182794        169940        157419        113639        82061.5       62492         44232.2       19307.1      
1850          219950        209379        196255        183293        170571        158167        114598        82676.5       62542.8       44005.7       19244        
1900          220028        209575        196595        183771        171176        158886        115525        83283.2       62606         43794.3       19184.2      
1950          220102        209763        196921        184229        171757        159576        116420        83881.1       62681.1       43597.4       19127.6      
2000          220173        209943        197234        184669        172314        160239        117286        84469.9       62767.1       43414.6       19074.1      
2050          220241        210116        197535        185091        172850        160877        118123        85049.3       62863.4       43245.1       19023.6      
2100          220307        210282        197824        185497        173365        161490        118932        85619.3       62969.3       43088.6       18975.8      
2150          220370        210442        198101        185887        173860        162079        119715        86179.6       63084.2       42944.6       18930.7      
2200          220430        210595        198368        186262        174336        162647        120472        86730.2       63207.3       42812.4       18888.2      
2250          220488        210743        198624        186623        174795        163194        121204        87271.1       63338.1       42691.7       18848.2      
2300          220544        210885        198871        186971        175236        163721        121913        87802.2       63476         42582         18810.5      
2350          220598        211020        199107        187303        175659        164226        122600        88323.7       63620.5       42482.9       18775.2      
2400          220650        211150        199334        187623        176066        164713        123264        88835.6       63771         42393.9       18742        
2450          220699        211275        199553        187931        176458        165183        123908        89337.9       63927.2       42314.6       18711        
2500          220747        211396        199763        188228        176836        165636        124532        89830.9       64088.5       42244.7       18682        
2550          220793        211513        199967        188515        177202        166075        125136        90314.2       64254.3       42183.7       18655        
2600          220838        211626        200164        188793        177556        166497        125721        90788.2       64424.2       42131.1       18629.8      
2650          220881        211735        200353        189060        177896        166906        126289        91253.1       64598.1       42086.8       18606.6      
2700          220919        211835        200526        189305        178212        167290        126839        91709.3       64775.5       42050.2       18585        
2750          220957        211933        200697        189547        178523        167666        127373        92156.4       64955.9       42021.1       18565.1      
2800          220995        212028        200864        189784        178827        168032        127891        92594.8       65139.1       41999.2       18546.9      
2850          221032        212122        201028        190016        179123        168387        128393        93024.6       65324.8       41984         18530.3      
2900          221068        212213        201187        190240        179410        168731        128881        93446         65512.7       41975.4       18515.1      
2950          221103        212302        201342        190459        179688        169065        129354        93859.1       65702.4       41972.9       18501.4      
3000          221137        212388        201492        190671        179958        169389        129814        94264.2       65893.8       41976.4       18489.1      
3050          221170        212472        201638        190876        180221        169704        130261        94661.3       66086.7       41985.5       18478.2      
3100          221202        212553        201779        191076        180475        170009        130696        95050.7       66280.7       42000         18468.6      
3150          221233        212632        201917        191270        180722        170305        131119        95432.5       66475.7       42019.6       18460.2      
3200          221263        212708        202050        191457        180962        170593        131530        95807         66671.5       42044         18452.9      
3250          221293        212782        202179        191640        181194        170872        131930        96174.3       66868         42073         18446.9      
3300          221321        212854        202304        191816        181420        171143        132320        96534.5       67064.8       42106.4       18441.9      
3350          221348        212924        202426        191988        181639        171406        132699        96888.1       67262         42144         18438        
3400          221375        212992        202544        192155        181852        171662        133069        97235.1       67459.5       42185.5       18435.2      
3450          221401        213058        202659        192317        182059        171911        133429        97575.4       67656.8       42230.7       18433.2      
3500          221426        213122        202770        192475        182260        172152        133780        97909         67853.8       42279.3       18432.3      
3550          221451        213184        202879        192628        182456        172387        134122        98236.9       68050.9       42331.4       18432.2      
3600          221475        213244        202984        192776        182645        172616        134455        98558.7       68247.5       42386.5       18432.9      
3650          221498        213303        203086        192921        182830        172838        134781        98874.5       68443.7       42444.6       18434.5      
3700          221520        213360        203185        193061        183010        173054        135098        99184.6       68639.4       42505.5       18436.9      
3750          221542        213415        203282        193198        183184        173264        135407        99489         68834.4       42569         18440        
3800          221563        213469        203376        193331        183354        173469        135710        99788.1       69028.8       42634.9       18443.8      
3850          221584        213522        203468        193460        183520        173669        136004        100082        69222.3       42703.2       18448.2      
3900          221605        213574        203558        193589        183684        173867        136293        100370        69415.1       42773.6       18453.4      
3950          221623        213620        203640        193705        183834        174048        136574        100654        69606.8       42845.9       18459.1      
4000          221642        213667        203722        193821        183984        174231        136849        100932        69797.6       42920.1       18465.4      
4050          221660        213714        203803        193937        184133        174412        137117        101206        69987.3       42996.1       18472.2      
4100          221678        213759        203884        194050        184279        174590        137379        101475        70176.1       43073.7       18479.6      
4150          221695        213802        203958        194156        184415        174753        137636        101739        70363.8       43152.8       18487.4      
4200          221712        213846        204034        194264        184554        174922        137886        101999        70550.3       43233.3       18495.7      
4250          221729        213888        204109        194370        184690        175087        138132        102255        70735.7       43315.1       18504.5      
4300          221745        213928        204179        194469        184817        175240        138371        102506        70919.7       43398         18513.7      
4350          221761        213970        204251        194571        184947        175397        138606        102752        71102.4       43481.9       18523.2      
4400          221777        214010        204322        194671        185075        175553        138835        102995        71283.9       43566.9       18533.2      
4450          221791        214047        204387        194764        185194        175695        139060        103234        71464         43652.7       18543.5      
4500          221807        214086        204455        194859        185317        175843        139280        103469        71642.7       43739.2       18554.1      
4550          221822        214124        204521        194953        185437        175989        139496        103700        71820.1       43826.6       18565        
4600          221836        214159        204582        195040        185548        176123        139708        103927        71996         43914.5       18576.1      
4650          221850        214196        204646        195131        185664        176264        139915        104151        72170.6       44002.9       18587.6      
4700          221863        214229        204704        195213        185770        176393        140118        104371        72343.6       44091.8       18599.3      
4750          221876        214261        204761        195294        185875        176521        140317        104588        72515.2       44181.1       18611.2      
4800          221888        214292        204815        195371        185975        176642        140512        104801        72685.5       44270.8       18623.3      
4850          221901        214325        204872        195452        186080        176770        140704        105011        72854.1       44360.7       18635.6      
4900          221913        214355        204925        195528        186177        176887        140891        105218        73021.4       44450.8       18648.1      
4950          221925        214387        204981        195607        186278        177010        141075        105421        73187         44541         18660.8      
5000          221937        214417        205033        195680        186372        177123        141256        105621        73351.3       44631.4       18673.6      
5050          221949        214447        205086        195756        186470        177242        141433        105819        73513.9       44721.8       18686.5      
5100          221960        214476        205136        195826        186560        177351        141607        106013        73675.1       44812.2       18699.6      
5150          221972        214505        205188        195900        186654        177465        141778        106204        73834.6       44902.4       18712.7      
5200          221983        214532        205235        195966        186740        177569        141946        106393        73992.8       44992.7       18726        
5250          221993        214558        205281        196032        186825        177674        142110        106578        74149.4       45082.8       18739.3      
5300          222003        214584        205326        196097        186909        177776        142272        106761        74304.5       45172.7       18752.7      
5350          222013        214610        205372        196161        186993        177878        142431        106942        74458.1       45262.3       18766.2      
5400          222023        214636        205417        196225        187075        177977        142587        107119        74610.1       45351.7       18779.7      
5450          222033        214661        205461        196288        187156        178075        142740        107294        74760.6       45440.8       18793.2      
5500          222043        214686        205505        196350        187235        178172        142891        107466        74909.5       45529.6       18806.8      
5550          222053        214711        205548        196411        187314        178267        143039        107636        75056.9       45618         18820.4      
5600          222063        214736        205591        196472        187392        178363        143185        107804        75202.8       45705.9       18834        
5650          222071        214757        205629        196527        187463        178450        143329        107969        75347.2       45793.6       18847.7      
5700          222080        214779        205668        196582        187534        178537        143470        108132        75490.3       45880.8       18861.3      
5750          222089        214803        205709        196641        187610        178629        143608        108292        75631.5       45967.4       18874.9      
5800          222098        214824        205746        196694        187679        178712        143744        108450        75771.5       46053.7       18888.5      
5850          222106        214846        205784        196747        187747        178795        143878        108606        75910         46139.4       18902.1      
5900          222115        214869        205824        196804        187820        178884        144010        108759        76046.7       46224.5       18915.6      
5950          222123        214889        205860        196856        187887        178965        144140        108911        76182.2       46309.2       18929.1      
6000          222131        214909        205895        196905        187950        179042        144268        109060        76316.2       46393.3       18942.6      
6050          222139        214929        205929        196954        188014        179120        144394        109208        76448.8       46476.8       18956        
6100          222146        214948        205963        197003        188077        179197        144517        109353        76579.8       46559.7       18969.4      
6150          222154        214968        205997        197051        188139        179273        144639        109496        76709.3       46641.9       18982.7      
6200          222161        214986        206029        197096        188198        179346        144759        109637        76837.4       46723.5       18995.9      
6250          222168        215003        206059        197139        188254        179416        144877        109777        76964.2       46804.6       19009.1      
6300          222175        215020        206089        197183        188312        179488        144993        109914        77089.6       46885         19022.2      
6350          222181        215036        206118        197224        188366        179555        145107        110050        77213.7       46964.8       19035.3      
6400          222187        215052        206146        197265        188420        179622        145219        110184        77336.4       47044         19048.2      
6450          222194        215069        206175        197307        188474        179689        145329        110316        77457.7       47122.5       19061.1      
6500          222200        215085        206204        197348        188528        179755        145438        110446        77577.6       47200.3       19074        
6550          222207        215102        206234        197390        188583        179822        145545        110574        77696         47277.3       19086.7      
6600          222213        215117        206261        197429        188633        179884        145650        110701        77813.5       47353.9       19099.3      
6650          222220        215134        206291        197472        188689        179953        145754        110826        77929.2       47429.6       19111.9      
6700          222225        215148        206315        197506        188734        180009        145856        110950        78044         47504.8       19124.4      
6750          222231        215163        206342        197545        188785        180071        145957        111071        78157.2       47579.2       19136.7      
6800          222237        215178        206367        197582        188832        180130        146057        111192        78269.4       47653         19149        
6850          222242        215191        206391        197615        188876        180186        146155        111310        78380.4       47726.2       19161.2      
6900          222248        215206        206416        197652        188924        180245        146251        111427        78489.8       47798.6       19173.3      
6950          222253        215221        206443        197690        188974        180305        146346        111543        78598.1       47870.3       19185.3      
7000          222259        215234        206466        197724        189018        180359        146439        111657        78705.1       47941.3       19197.3      
7050          222264        215247        206490        197758        189063        180415        146532        111769        78810.9       48011.6       19209.1      
7100          222269        215260        206512        197790        189104        180468        146623        111880        78915.7       48081.3       19220.8      
7150          222274        215273        206535        197822        189147        180521        146713        111990        79019.2       48150.3       19232.4      
7200          222279        215286        206558        197855        189190        180574        146801        112098        79121.4       48218.6       19243.9      
7250          222284        215299        206581        197888        189233        180627        146889        112205        79222.4       48286.2       19255.3      
7300          222289        215312        206604        197921        189276        180679        146974        112310        79322.2       48353.1       19266.6      
7350          222295        215325        206627        197954        189319        180731        147059        112414        79420.7       48419.2       19277.8      
7400          222300        215338        206650        197987        189361        180783        147143        112517        79518.1       48484.7       19288.9      
7450          222305        215351        206673        198020        189404        180835        147226        112618        79614.2       48549.4       19299.8      
7500          222310        215365        206696        198053        189446        180886        147307        112717        79709.1       48613.3       19310.7      
7550          222315        215378        206719        198085        189487        180936        147388        112816        79802.8       48676.6       19321.4      
7600          222320        215391        206742        198117        189529        180986        147467        112912        79895.3       48739.1       19332.1      
7650          222325        215404        206764        198149        189570        181036        147545        113008        79986.6       48801         19342.6      
7700          222331        215416        206786        198181        189610        181085        147623        113103        80076.8       48862.1       19353        
7750          222336        215429        206809        198212        189650        181133        147699        113196        80165.8       48922.5       19363.3      
7800          222340        215441        206830        198243        189690        181181        147775        113287        80253.7       48982.2       19373.5      
7850          222345        215454        206852        198274        189729        181228        147850        113378        80340.4       49041.2       19383.6      
7900          222350        215466        206874        198304        189768        181275        147923        113468        80426.1       49099.5       19393.6      
7950          222355        215478        206895        198334        189806        181321        147996        113556        80510.6       49157.1       19403.5      
8000          222360        215490        206916        198364        189844        181367        148068        113643        80594.1       49214         19413.2      
8050          222364        215502        206936        198393        189882        181412        148139        113729        80676.5       49270.3       19422.9      
8100          222369        215514        206957        198422        189919        181457        148209        113814        80757.8       49325.8       19432.4      
8150          222374        215526        206977        198451        189956        181501        148278        113898        80838.1       49380.7       19441.8      
8200          222378        215537        206997        198479        189992        181544        148346        113980        80917.4       49434.9       19451.1      
8250          222383        215548        207017        198507        190027        181587        148413        114062        80995.7       49488.4       19460.3      
8300          222387        215560        207037        198535        190063        181630        148480        114142        81072.9       49541.3       19469.4      
8350          222391        215571        207056        198562        190098        181672        148545        114222        81149.1       49593.5       19478.4      
8400          222396        215582        207075        198589        190132        181713        148610        114300        81224.4       49645         19487.3      
8450          222400        215592        207094        198615        190166        181754        148674        114378        81298.7       49696         19496.1      
8500          222404        215603        207112        198642        190200        181795        148737        114454        81372         49746.3       19504.7      
8550          222408        215614        207131        198668        190233        181835        148800        114530        81444.4       49795.9       19513.3      
8600          222412        215624        207149        198693        190266        181874        148861        114604        81515.9       49844.9       19521.8      
8650          222416        215634        207167        198718        190298        181913        148922        114678        81586.4       49893.4       19530.1      
8700          222420        215644        207184        198743        190330        181951        148982        114750        81656         49941.2       19538.4      
8750          222424        215654        207202        198768        190361        181989        149041        114822        81724.7       49988.4       19546.5      