# Probe 0 (0.0015 0.0015 0)
# Probe 1 (0.0015 0.0015 0.01)
# Probe 2 (0.0015 0.0015 0.02)
# Probe 3 (0.0015 0.0015 0.03)
# Probe 4 (0.0015 0.0015 0.04)
# Probe 5 (0.0015 0.0015 0.05)
# Probe 6 (0.0015 0.0015 0.06)
# Probe 7 (0.0015 0.0015 0.07)
# Probe 8 (0.0015 0.0015 0.08)
# Probe 9 (0.0015 0.0015 0.09)
# Probe 10 (0.0015 0.0015 0.1)
# Time        0             1             2             3             4             5             6             7             8             9             10           
50            (9.7597 9.7597 -7.14697e+06) (4.21652 4.21652 -5.61635e+06) (-1.00798 -1.00798 -2.8942e+06) (-0.997043 -0.997043 -1.10731e+06) (-0.364778 -0.364778 -334508) (0.351122 0.351122 -81729.2) (-0.197669 -0.197669 5653.3) (-0.0250438 -0.0250438 14.7626) (-0.0992027 -0.0992026 -176.294) (4.87993 4.87993 -95990.1) (-67.0464 -67.0464 -1.15476e+07)
100           (-19.484 -19.484 -5.11976e+06) (-13.9671 -13.9671 -4.63434e+06) (-5.80294 -5.80294 -3.4538e+06) (-1.19592 -1.19592 -2.0479e+06) (-3.81868 -3.81868 -977248) (-19.3241 -19.3241 -737746) (-0.691668 -0.691668 -953.326) (0.00384541 0.00384538 91.1552) (-0.143394 -0.143394 -2010.03) (-8.89592 -8.89592 -328219) (81.1429 81.1429 -9.71358e+06)
150           (18.9492 18.9492 -4.18975e+06) (13.4307 13.4307 -3.93671e+06) (11.8013 11.8013 -3.29576e+06) (5.92482 5.92482 -2.39234e+06) (3.05666 3.05666 -1.47483e+06) (71.406 71.406 -1.52902e+06) (-9.52441 -9.52441 -51707.9) (-0.0331934 -0.0331934 30.9468) (-1.42467 -1.42467 -8637.36) (-50.2454 -50.2454 -613943) (123.854 123.854 -8.49178e+06)
200           (-6.75969 -6.75969 -3.63036e+06) (-5.43301 -5.43301 -3.47029e+06) (-5.546 -5.546 -3.06114e+06) (-4.75525 -4.75525 -2.45219e+06) (-0.739128 -0.739128 -1.75271e+06) (-50.0445 -50.0445 -2.19672e+06) (0.978319 0.978319 -169473) (0.0583606 0.0583606 -1082.89) (0.374903 0.374903 -23056.1) (2.11459 2.11459 -889653) (21.1917 21.1917 -7.62066e+06)
250           (-5.84444 -5.84444 -3.24943e+06) (-4.80322 -4.80322 -3.13772e+06) (-5.21667 -5.21667 -2.85162e+06) (-5.08512 -5.08512 -2.41612e+06) (-1.59127 -1.59127 -1.88568e+06) (-67.1037 -67.1037 -2.66061e+06) (1.65187 1.65187 -357418) (0.150209 0.150209 -5101.75) (0.603581 0.603581 -46721.9) (2.70719 2.70719 -1.1291e+06) (18.6202 18.6202 -6.96483e+06)
300           (3.28215 3.28215 -2.9713e+06) (2.86766 2.86766 -2.88858e+06) (3.3052 3.3052 -2.67671e+06) (2.86527 2.86527 -2.35018e+06) (3.02651 3.02651 -1.9391e+06) (61.9756 61.9756 -2.95168e+06) (-1.26535 -1.26535 -602608) (-0.0394927 -0.0394927 -14539.7) (-0.302396 -0.302396 -79361.1) (-1.74247 -1.74247 -1.32715e+06) (-7.0348 -7.0348 -6.45029e+06)
350           (1.27952 1.27952 -2.75876e+06) (0.570792 0.570792 -2.69487e+06) (0.60962 0.60962 -2.53122e+06) (0.162454 0.162454 -2.27685e+06) (2.65272 2.65272 -1.94914e+06) (29.0522 29.0522 -3.12229e+06) (-39.1677 -39.1677 -884737) (-2.7268 -2.7268 -32005.1) (-7.21044 -7.21044 -119592) (-29.9567 -29.9567 -1.48727e+06) (61.114 61.114 -6.03349e+06)
400           (-1.02299 -1.02299 -2.59056e+06) (-0.654758 -0.654758 -2.53952e+06) (-1.69523 -1.69523 -2.40873e+06) (-1.77791 -1.77791 -2.20412e+06) (-1.93634 -1.93634 -1.93597e+06) (-41.6241 -41.6241 -3.2144e+06) (27.6293 27.6293 -1.18311e+06) (3.22423 3.22423 -59647.4) (6.69313 6.69313 -165608) (20.7628 20.7628 -1.6153e+06) (-36.4116 -36.4116 -5.68745e+06)
450           (-3.06491 -3.06491 -2.45346e+06) (-2.59031 -2.59031 -2.41153e+06) (-3.12942 -3.12942 -2.30407e+06) (-3.71717 -3.71717 -2.13506e+06) (-1.88314 -1.88314 -1.9108e+06) (-88.7216 -88.7216 -3.25656e+06) (28.5489 28.5489 -1.48073e+06) (4.95747 4.95747 -98902) (7.70156 7.70156 -215728) (17.4439 17.4439 -1.71707e+06) (-24.05 -24.05 -5.3944e+06)
500           (0.774469 0.774469 -2.33899e+06) (0.634657 0.634657 -2.30374e+06) (0.934966 0.934966 -2.21335e+06) (0.602347 0.602347 -2.07065e+06) (3.48064 3.48064 -1.87909e+06) (40.6515 40.6515 -3.26724e+06) (-33.6522 -33.6522 -1.76563e+06) (-6.92584 -6.92584 -150269) (-9.03239 -9.03239 -268535) (-16.7923 -16.7923 -1.79771e+06) (31.3844 31.3844 -5.14223e+06)
550           (4.66188 4.66188 -2.24151e+06) (3.25774 3.25774 -2.21127e+06) (3.65514 3.65514 -2.1337e+06) (3.4475 3.4475 -2.01087e+06) (6.7775 6.7775 -1.84444e+06) (131.622 131.622 -3.25814e+06) (-41.6575 -41.6575 -2.03059e+06) (-12.7035 -12.7035 -213508) (-14.2502 -14.2502 -323038) (-21.2342 -21.2342 -1.86143e+06) (32.3621 32.3621 -4.92227e+06)
600           (3.84885 3.84885 -2.15691e+06) (2.05497 2.05497 -2.13055e+06) (1.8066 1.8066 -2.06292e+06) (1.71488 1.71488 -1.95559e+06) (4.39812 4.39812 -1.80936e+06) (79.4171 79.4171 -3.23594e+06) (-13.5019 -13.5019 -2.27213e+06) (-6.02578 -6.02578 -287664) (-5.85196 -5.85196 -378540) (-6.9861 -6.9861 -1.91162e+06) (9.12296 9.12296 -4.72826e+06)
650           (3.35163 3.35163 -2.08246e+06) (1.73588 1.73588 -2.05917e+06) (1.48108 1.48108 -1.99945e+06) (1.39431 1.39431 -1.90449e+06) (3.91175 3.91175 -1.77457e+06) (69.6351 69.6351 -3.20587e+06) (-10.1252 -10.1252 -2.48913e+06) (-6.00318 -6.00318 -371379) (-5.36029 -5.36029 -434629) (-5.38695 -5.38695 -1.95099e+06) (7.17191 7.17191 -4.55548e+06)
700           (-2.72643 -2.72643 -2.01632e+06) (-4.09134 -4.09134 -1.99551e+06) (-4.41166 -4.41166 -1.94213e+06) (-4.51958 -4.51958 -1.85709e+06) (-4.69053 -4.69053 -1.74032e+06) (-112.39 -112.39 -3.17132e+06) (41.3897 41.3897 -2.68201e+06) (27.6134 27.6134 -463109) (22.8825 22.8825 -491099) (20.0303 20.0303 -1.98168e+06) (-38.668 -38.668 -4.40035e+06)
750           (7.64062 7.64062 -1.9568e+06) (0.460344 0.460344 -1.93802e+06) (2.56876 2.56876 -1.88985e+06) (5.20639 5.20639 -1.81304e+06) (10.07 10.07 -1.70735e+06) (258.679 258.679 -3.13317e+06) (-60.764 -60.764 -2.85229e+06) (-55.2283 -55.2283 -561127) (-43.548 -43.548 -547823) (-31.9453 -31.9453 -2.00544e+06) (69.6718 69.6718 -4.26006e+06)
800           (0.857862 0.857862 -1.90281e+06) (-5.42531 -5.42531 -1.88574e+06) (-2.64463 -2.64463 -1.84195e+06) (-0.386462 -0.386462 -1.7721e+06) (0.592143 0.592143 -1.67583e+06) (13.7494 13.7494 -3.09426e+06) (58.3564 58.3564 -3.00202e+06) (51.1596 51.1596 -663774) (39.6212 39.6212 -604752) (28.7713 28.7713 -2.02367e+06) (-76.1653 -76.1653 -4.13241e+06)
850           (0.478693 0.478693 -1.85347e+06) (-4.69551 -4.69551 -1.83785e+06) (-1.31029 -1.31029 -1.79779e+06) (1.253 1.253 -1.73387e+06) (2.9565 2.9565 -1.64566e+06) (1.07198 1.07198 -3.05446e+06) (65.6251 65.6251 -3.13319e+06) (44.5153 44.5153 -769530) (34.5937 34.5937 -661880) (27.004 27.004 -2.03749e+06) (-63.3535 -63.3535 -4.01561e+06)
900           (-6.18573 -6.18573 -1.80815e+06) (-3.72296 -3.72296 -1.79376e+06) (-4.54097 -4.54097 -1.75692e+06) (-4.33467 -4.33467 -1.69812e+06) (-10.7085 -10.7085 -1.61699e+06) (-244.542 -244.542 -3.01507e+06) (-57.3632 -57.3632 -3.24793e+06) (8.55828 8.55828 -876984) (4.88563 4.88563 -719176) (-9.04674 -9.04674 -2.04783e+06) (2.59041 2.59041 -3.90823e+06)
950           (-19.6854 -19.8709 -1.7663e+06) (-8.80418 -7.20336 -1.75299e+06) (-8.25879 -8.34748 -1.7189e+06) (-4.97353 -9.58028 -1.66451e+06) (6.07258 8.52891 -1.58939e+06) (-42.1039 -41.5672 -2.97568e+06) (12.3768 15.5221 -3.34832e+06) (39.0232 34.8031 -984942) (17.8234 37.5455 -776623) (5.08768 18.6065 -2.05546e+06) (-34.2014 -32.5982 -3.80908e+06)
1000          (-2.65335 -2.55482 -1.72745e+06) (-2.7999 0.214768 -1.71508e+06) (-1.26701 -0.942936 -1.68342e+06) (3.39699 -6.03552 -1.63291e+06) (-5.62728 -0.478781 -1.56311e+06) (-66.496 -63.1233 -2.93699e+06) (-21.7743 35.8805 -3.43591e+06) (1.03467 49.3836 -1.09243e+06) (-145.594 183.452 -834202) (-106.926 121.353 -2.06097e+06) (-33.0094 -9.8089 -3.7172e+06)
1050          (-2.4612 -2.43045 -1.69125e+06) (-1.38327 -1.03572 -1.67971e+06) (-1.08806 -0.973338 -1.65021e+06) (-0.663823 -1.80547 -1.60313e+06) (-3.22183 -2.52511 -1.53806e+06) (-62.2455 -59.8952 -2.89923e+06) (-21.5633 30.4416 -3.51227e+06) (-29.2433 78.0354 -1.19862e+06) (-137.013 174.34 -891865) (-105.761 118.678 -2.0649e+06) (-31.1361 -8.34815 -3.63176e+06)
1100          (-2.30243 -2.29788 -1.65739e+06) (-1.15381 -1.11437 -1.6466e+06) (-0.975875 -0.952399 -1.61902e+06) (-1.08782 -1.22907 -1.57501e+06) (-2.75816 -2.6611 -1.51416e+06) (-58.4766 -56.7887 -2.8625e+06) (-21.6945 26.2042 -3.57883e+06) (-46.9342 93.9576 -1.30283e+06) (-127.555 164.398 -949544) (-101.702 113.433 -2.06765e+06) (-29.3926 -7.28741 -3.55208e+06)
1150          (-2.1687 -2.16811 -1.62565e+06) (-1.06861 -1.06419 -1.61553e+06) (-0.906807 -0.902702 -1.58967e+06) (-1.08099 -1.09911 -1.54841e+06) (-2.56799 -2.55329 -1.49136e+06) (-55.0933 -53.9129 -2.82685e+06) (-23.1974 24.0466 -3.63683e+06) (-57.5717 102.662 -1.40455e+06) (-118.695 155.022 -1.00716e+06) (-95.6737 106.448 -2.06958e+06) (-27.6497 -6.58175 -3.47757e+06)
1200          (0.191578 0.191578 -1.59589e+06) (-0.689856 -0.689856 -1.58641e+06) (-0.897785 -0.897785 -1.56202e+06) (-1.88054 -1.88054 -1.52311e+06) (-3.1455 -3.1455 -1.46956e+06) (-35.1778 -35.1766 -2.79166e+06) (-1.21666 -1.34114 -3.6873e+06) (18.3847 17.8627 -1.50335e+06) (15.8173 14.913 -1.06462e+06) (4.90668 4.18538 -2.07098e+06) (-14.0184 -14.0933 -3.40774e+06)
1250          (-1.36775 -1.36775 -1.56785e+06) (-0.839044 -0.839044 -1.55887e+06) (-0.678156 -0.678156 -1.53592e+06) (-0.533874 -0.533874 -1.49917e+06) (-1.16214 -1.16214 -1.44851e+06) (-34.9535 -34.9535 -2.75806e+06) (-2.31854 -2.32267 -3.73133e+06) (17.883 17.8508 -1.59892e+06) (15.6786 15.6016 -1.12183e+06) (4.43928 4.3433 -2.07209e+06) (-13.5833 -13.6086 -3.34217e+06)
1300          (-1.26498 -1.26498 -1.54131e+06) (-1.38985 -1.38985 -1.53288e+06) (-1.16324 -1.16324 -1.51139e+06) (0.45157 0.45157 -1.4762e+06) (-1.63685 -1.63685 -1.42864e+06) (-41.9779 -41.9779 -2.72548e+06) (-4.10952 -4.10966 -3.76971e+06) (20.3193 20.3173 -1.69107e+06) (18.4892 18.4826 -1.17867e+06) (5.01604 5.00299 -2.0731e+06) (-15.1645 -15.1731 -3.28048e+06)
1350          (-1.12227 -1.12227 -1.51623e+06) (-1.30601 -1.30601 -1.50824e+06) (-1.18672 -1.18672 -1.4879e+06) (0.339326 0.339326 -1.45458e+06) (-1.54445 -1.54445 -1.40955e+06) (-40.4037 -40.4037 -2.69418e+06) (-5.11386 -5.11387 -3.8031e+06) (19.538 19.5379 -1.77968e+06) (18.4461 18.4455 -1.23506e+06) (4.86756 4.86573 -2.07416e+06) (-14.603 -14.6059 -3.22237e+06)
1400          (-1.07295 -1.07295 -1.49244e+06) (-1.24238 -1.24238 -1.48485e+06) (-1.13856 -1.13856 -1.46557e+06) (0.323963 0.323963 -1.43398e+06) (-1.46769 -1.46769 -1.39131e+06) (-38.5734 -38.5734 -2.66406e+06) (-5.89657 -5.89657 -3.83205e+06) (18.4217 18.4217 -1.86469e+06) (18.0635 18.0634 -1.29092e+06) (4.6843 4.68404 -2.0754e+06) (-13.8258 -13.8268 -3.16755e+06)
1450          (-1.01941 -1.01941 -1.46984e+06) (-1.17954 -1.17954 -1.46263e+06) (-1.08316 -1.08316 -1.44433e+06) (0.31728 0.31728 -1.41434e+06) (-1.3924 -1.3924 -1.37386e+06) (-36.6585 -36.6585 -2.63502e+06) (-6.50844 -6.50844 -3.85711e+06) (17.2374 17.2374 -1.94608e+06) (17.5714 17.5713 -1.34614e+06) (4.51673 4.51669 -2.07691e+06) (-13.0209 -13.0213 -3.11577e+06)
1500          (-0.96796 -0.96796 -1.44834e+06) (-1.12171 -1.12171 -1.44149e+06) (-1.03258 -1.03258 -1.42409e+06) (0.308339 0.308339 -1.3956e+06) (-1.32391 -1.32391 -1.35714e+06) (-34.8994 -34.8994 -2.60702e+06) (-7.0004 -7.0004 -3.87874e+06) (16.103 16.103 -2.02387e+06) (17.0786 17.0786 -1.40065e+06) (4.38498 4.38497 -2.07878e+06) (-12.2744 -12.2745 -3.06684e+06)
1550          (-0.920473 -0.920473 -1.42788e+06) (-1.06815 -1.06815 -1.42136e+06) (-0.985528 -0.985528 -1.4048e+06) (0.299311 0.299311 -1.3777e+06) (-1.26059 -1.26059 -1.34111e+06) (-33.2671 -33.2671 -2.58002e+06) (-7.39092 -7.39092 -3.89735e+06) (15.0156 15.0156 -2.09812e+06) (16.5807 16.5807 -1.45436e+06) (4.28095 4.28095 -2.08105e+06) (-11.579 -11.5791 -3.02056e+06)
1600          (-0.876346 -0.876346 -1.40838e+06) (-1.01828 -1.01828 -1.40216e+06) (-0.941525 -0.941525 -1.38639e+06) (0.290521 0.290521 -1.36057e+06) (-1.20161 -1.20161 -1.32574e+06) (-31.7424 -31.7424 -2.55398e+06) (-7.69578 -7.69578 -3.9133e+06) (13.9753 13.9753 -2.16888e+06) (16.077 16.077 -1.5072e+06) (4.1985 4.1985 -2.08378e+06) (-10.9289 -10.9289 -2.97677e+06)
1650          (-0.835183 -0.835183 -1.38977e+06) (-0.971748 -0.971748 -1.38384e+06) (-0.900326 -0.900326 -1.3688e+06) (0.281954 0.281954 -1.34419e+06) (-1.14655 -1.14655 -1.31098e+06) (-30.3153 -30.3153 -2.52886e+06) (-7.92888 -7.92888 -3.92688e+06) (12.984 12.984 -2.23626e+06) (15.5698 15.5698 -1.55912e+06) (4.1331 4.1331 -2.08698e+06) (-10.3196 -10.3196 -2.93532e+06)
1700          (-0.796698 -0.796698 -1.37201e+06) (-0.928234 -0.928234 -1.36634e+06) (-0.861682 -0.861682 -1.35199e+06) (0.273623 0.273623 -1.3285e+06) (-1.09506 -1.09506 -1.29681e+06) (-28.977 -28.977 -2.50463e+06) (-8.10172 -8.10172 -3.93837e+06) (12.0425 12.0425 -2.30035e+06) (15.0611 15.0611 -1.61006e+06) (4.08094 4.08094 -2.09068e+06) (-9.74698 -9.74698 -2.89608e+06)
1750          (-0.76064 -0.76064 -1.35503e+06) (-0.887463 -0.887463 -1.34961e+06) (-0.825369 -0.825369 -1.3359e+06) (0.265544 0.265544 -1.31346e+06) (-1.04681 -1.04681 -1.28321e+06) (-27.7197 -27.7197 -2.48126e+06) (-8.22387 -8.22387 -3.948e+06) (11.1505 11.1505 -2.36128e+06) (14.5527 14.5527 -1.65996e+06) (4.03886 4.03886 -2.09488e+06) (-9.20727 -9.20727 -2.85893e+06)
1800          (-0.726791 -0.726791 -1.33878e+06) (-0.84919 -0.84919 -1.33361e+06) (-0.791188 -0.791188 -1.32049e+06) (0.257723 0.257723 -1.29904e+06) (-1.00151 -1.00151 -1.27013e+06) (-26.5364 -26.5364 -2.45871e+06) (-8.30334 -8.30334 -3.95597e+06) (10.3073 10.3073 -2.41916e+06) (14.0464 14.0464 -1.7088e+06) (4.00424 4.00424 -2.09959e+06) (-8.6972 -8.6972 -2.82375e+06)
1850          (-0.694958 -0.694958 -1.32323e+06) (-0.813198 -0.813198 -1.31828e+06) (-0.758964 -0.758964 -1.30573e+06) (0.250161 0.250161 -1.28521e+06) (-0.958896 -0.958896 -1.25755e+06) (-25.4212 -25.4212 -2.43695e+06) (-8.34685 -8.34685 -3.96247e+06) (9.51157 9.51157 -2.4741e+06) (13.5437 13.5437 -1.75653e+06) (3.97493 3.97493 -2.10479e+06) (-8.21397 -8.21397 -2.79046e+06)
1900          (-0.664976 -0.664976 -1.30834e+06) (-0.779295 -0.779295 -1.30359e+06) (-0.728542 -0.728542 -1.29158e+06) (0.242856 0.242856 -1.27193e+06) (-0.918751 -0.918751 -1.24545e+06) (-24.3687 -24.3687 -2.41595e+06) (-8.36011 -8.36011 -3.96765e+06) (8.76183 8.76183 -2.52625e+06) (13.046 13.046 -1.80314e+06) (3.94916 3.94916 -2.11048e+06) (-7.75513 -7.75513 -2.75897e+06)
1950          (-0.636696 -0.636696 -1.29406e+06) (-0.747313 -0.747313 -1.28951e+06) (-0.699782 -0.699782 -1.278e+06) (0.235803 0.235803 -1.25917e+06) (-0.880876 -0.880876 -1.23381e+06) (-23.3739 -23.3739 -2.39567e+06) (-8.34794 -8.34794 -3.97165e+06) (8.05631 8.05631 -2.57571e+06) (12.5547 12.5547 -1.8486e+06) (3.92552 3.92552 -2.11665e+06) (-7.31861 -7.31861 -2.72919e+06)
2000          (-0.609988 -0.609988 -1.28036e+06) (-0.717102 -0.717102 -1.276e+06) (-0.672561 -0.672561 -1.26496e+06) (0.228997 0.228997 -1.24691e+06) (-0.845093 -0.845093 -1.2226e+06) (-22.4328 -22.4328 -2.3761e+06) (-8.31442 -8.31442 -3.97459e+06) (7.39314 7.39314 -2.62261e+06) (12.0709 12.0709 -1.89291e+06) (3.90285 3.90285 -2.12327e+06) (-6.90259 -6.90259 -2.70104e+06)
2050          (-0.584737 -0.584737 -1.26721e+06) (-0.688527 -0.688527 -1.26302e+06) (-0.646767 -0.646767 -1.25243e+06) (0.222429 0.222429 -1.23512e+06) (-0.811245 -0.811245 -1.21181e+06) (-21.5413 -21.5413 -2.35719e+06) (-8.26304 -8.26304 -3.9766e+06) (6.77036 6.77036 -2.66707e+06) (11.5955 11.5955 -1.93605e+06) (3.88025 3.88025 -2.13032e+06) (-6.50551 -6.50551 -2.67446e+06)
2100          (-0.560837 -0.560837 -1.25459e+06) (-0.661469 -0.661469 -1.25056e+06) (-0.622301 -0.622301 -1.2404e+06) (0.216093 0.216093 -1.22378e+06) (-0.779191 -0.779191 -1.2014e+06) (-20.6962 -20.6962 -2.33893e+06) (-8.19677 -8.19677 -3.97775e+06) (6.18597 6.18597 -2.70921e+06) (11.1294 11.1294 -1.97801e+06) (3.85701 3.85701 -2.13779e+06) (-6.126 -6.126 -2.64938e+06)
2150          (-0.538197 -0.538197 -1.24245e+06) (-0.63582 -0.63582 -1.23859e+06) (-0.599072 -0.599072 -1.22882e+06) (0.209979 0.209979 -1.21286e+06) (-0.748805 -0.748805 -1.19138e+06) (-19.8943 -19.8943 -2.32128e+06) (-8.11814 -8.11814 -3.97815e+06) (5.63798 5.63798 -2.74914e+06) (10.6734 10.6734 -2.01881e+06) (3.83259 3.83259 -2.14565e+06) (-5.76286 -5.76286 -2.62575e+06)
2200          (-0.516731 -0.516731 -1.23079e+06) (-0.611484 -0.611484 -1.22708e+06) (-0.576997 -0.576997 -1.21769e+06) (0.20408 0.20408 -1.20235e+06) (-0.719972 -0.719972 -1.18171e+06) (-19.1327 -19.1327 -2.30422e+06) (-8.02932 -8.02932 -3.97787e+06) (5.12444 5.12444 -2.78697e+06) (10.228 10.228 -2.05845e+06) (3.80659 3.80659 -2.15388e+06) (-5.41507 -5.41507 -2.60349e+06)
2250          (-0.496364 -0.496364 -1.21957e+06) (-0.588373 -0.588373 -1.216e+06) (-0.556002 -0.556002 -1.20698e+06) (0.198388 0.198388 -1.19223e+06) (-0.69259 -0.69259 -1.17239e+06) (-18.4089 -18.4089 -2.28773e+06) (-7.93215 -7.93215 -3.97698e+06) (4.64344 4.64344 -2.8228e+06) (9.79371 9.79371 -2.09693e+06) (3.77872 3.77872 -2.16244e+06) (-5.08169 -5.08169 -2.58257e+06)
2300          (-0.477026 -0.477026 -1.20878e+06) (-0.566407 -0.566407 -1.20534e+06) (-0.536019 -0.536019 -1.19666e+06) (0.192893 0.192893 -1.18247e+06) (-0.666564 -0.666564 -1.16339e+06) (-17.7205 -17.7205 -2.27179e+06) (-7.82822 -7.82822 -3.97553e+06) (4.19312 4.19312 -2.85673e+06) (9.37094 9.37094 -2.13428e+06) (3.74879 3.74879 -2.17133e+06) (-4.76191 -4.76191 -2.56292e+06)
2350          (0.765887 0.765887 -1.19847e+06) (-0.733994 -0.733994 -1.19513e+06) (-1.63024 -1.63024 -1.18685e+06) (-0.518411 -0.518411 -1.17309e+06) (-0.890009 -0.890009 -1.1547e+06) (-27.6495 -27.6495 -2.25617e+06) (-6.96709 -6.96709 -3.97355e+06) (3.35246 3.35246 -2.88887e+06) (8.09184 8.09184 -2.17049e+06) (3.40176 3.40176 -2.1805e+06) (-3.8893 -3.8893 -2.54451e+06)
2400          (-1.69745 -1.69745 -1.18858e+06) (-2.24249 -2.24249 -1.18532e+06) (-3.77603 -3.77603 -1.1774e+06) (-2.85954 -2.85954 -1.16407e+06) (-4.77695 -4.77695 -1.14625e+06) (-136.382 -136.382 -2.2411e+06) (-41.8612 -41.8612 -3.97106e+06) (19.2706 19.2705 -2.9193e+06) (47.091 47.091 -2.2056e+06) (19.9919 19.9919 -2.18995e+06) (-20.5605 -20.5605 -2.52728e+06)
2450          (3.02484 3.02484 -1.17903e+06) (1.57632 1.57632 -1.17585e+06) (1.05116 1.05116 -1.1683e+06) (2.14377 2.14377 -1.15536e+06) (2.22204 2.22204 -1.13812e+06) (95.844 95.844 -2.22649e+06) (26.0616 26.0616 -3.96812e+06) (-10.7023 -10.7023 -2.94811e+06) (-27.8887 -27.8887 -2.23962e+06) (-12.324 -12.324 -2.19965e+06) (12.0536 12.0536 -2.51118e+06)
2500          (1.49327 1.49327 -1.16984e+06) (-0.00524189 -0.00524114 -1.16672e+06) (-2.04933 -2.04933 -1.15952e+06) (0.0283983 0.0283989 -1.147e+06) (-0.38132 -0.381321 -1.13024e+06) (-5.85749 -5.85749 -2.21273e+06) (21.4203 21.4203 -3.96483e+06) (-5.43 -5.43 -2.97538e+06) (-20.4057 -20.4057 -2.27257e+06) (-9.99519 -9.99519 -2.20957e+06) (10.5434 10.5434 -2.4962e+06)
2550          (2.75377 2.75377 -1.16095e+06) (1.77143 1.77143 -1.15794e+06) (0.629962 0.629962 -1.15094e+06) (3.45986 3.45986 -1.13888e+06) (5.38115 5.38115 -1.12266e+06) (105.929 105.929 -2.19891e+06) (34.834 34.834 -3.96121e+06) (-10.6717 -10.6717 -3.00117e+06) (-34.5278 -34.5278 -2.30445e+06) (-16.6144 -16.6144 -2.21969e+06) (14.4987 14.4987 -2.48227e+06)
2600          (4.29834 4.29834 -1.15237e+06) (2.34227 2.34227 -1.14941e+06) (0.0244033 0.0244033 -1.14271e+06) (2.43531 2.43531 -1.13108e+06) (2.43168 2.43168 -1.11532e+06) (105.031 105.031 -2.18564e+06) (27.1052 27.1052 -3.95733e+06) (-7.99875 -7.99875 -3.02556e+06) (-27.4553 -27.4553 -2.33531e+06) (-13.6508 -13.6508 -2.22998e+06) (10.432 10.432 -2.46934e+06)
2650          (-1.19114 -1.19114 -1.14412e+06) (0.440091 0.440091 -1.14122e+06) (-0.593309 -0.593309 -1.1348e+06) (0.826491 0.826491 -1.12354e+06) (0.68606 0.68606 -1.10828e+06) (-0.669966 -0.669966 -2.1729e+06) (-1.30902 -1.30902 -3.9532e+06) (0.563801 0.563801 -3.04864e+06) (1.64376 1.64376 -2.36516e+06) (0.846267 0.846267 -2.24044e+06) (-1.14208 -1.14208 -2.45741e+06)
2700          (-0.327269 -0.327269 -1.13659e+06) (-0.210401 -0.210401 -1.13392e+06) (0.000577455 0.000577483 -1.12715e+06) (-2.27482 -2.27482 -1.11639e+06) (5.33381 5.33381 -1.10143e+06) (22.4236 22.4236 -2.15876e+06) (10.4196 10.4196 -3.94882e+06) (-1.04671 -1.04671 -3.07049e+06) (-9.88996 -9.88996 -2.39405e+06) (-5.55833 -5.55833 -2.25103e+06) (4.11581 4.11581 -2.44641e+06)
2750          (-0.516417 -0.516417 -1.12918e+06) (-0.269214 -0.269214 -1.12655e+06) (-0.0639423 -0.0639423 -1.11989e+06) (-0.228302 -0.228302 -1.10932e+06) (-2.05538 -2.05538 -1.09469e+06) (31.5534 31.5534 -2.14637e+06) (12.9324 12.9324 -3.94412e+06) (-1.15026 -1.15026 -3.09114e+06) (-9.49373 -9.49373 -2.42197e+06) (-5.58805 -5.58805 -2.26175e+06) (3.65524 3.65524 -2.43632e+06)
2800          (-0.479072 -0.479072 -1.1219e+06) (-0.209346 -0.209346 -1.11932e+06) (-0.361947 -0.361947 -1.11281e+06) (0.621642 0.621642 -1.10248e+06) (0.0463269 0.0463269 -1.08824e+06) (21.7036 21.7036 -2.13466e+06) (11.6297 11.6297 -3.93921e+06) (-0.809714 -0.809714 -3.11066e+06) (-8.86928 -8.86928 -2.44895e+06) (-5.34217 -5.34217 -2.27257e+06) (3.5645 3.5645 -2.42711e+06)
2850          (-0.473858 -0.473858 -1.11478e+06) (-0.175605 -0.175605 -1.11227e+06) (-0.215534 -0.215534 -1.10592e+06) (-0.785014 -0.785014 -1.09587e+06) (0.762548 0.762548 -1.08203e+06) (29.0792 29.0792 -2.12339e+06) (12.0055 12.0055 -3.93413e+06) (-0.147915 -0.147915 -3.12911e+06) (-8.56236 -8.56236 -2.47503e+06) (-5.41729 -5.41729 -2.28347e+06) (3.08195 3.08195 -2.41874e+06)
2900          (-0.426998 -0.426998 -1.10784e+06) (-0.234396 -0.234396 -1.1054e+06) (-0.00984557 -0.00984551 -1.09922e+06) (0.209683 0.209683 -1.08946e+06) (-1.43483 -1.43483 -1.07603e+06) (21.0714 21.0714 -2.11255e+06) (11.564 11.564 -3.92896e+06) (-0.163008 -0.163008 -3.14654e+06) (-8.02924 -8.02924 -2.50022e+06) (-5.22869 -5.22869 -2.29445e+06) (2.91213 2.91213 -2.41118e+06)
2950          (-0.465765 -0.465765 -1.1011e+06) (-0.206091 -0.206091 -1.09873e+06) (-0.351002 -0.351002 -1.09273e+06) (-0.16175 -0.16175 -1.08325e+06) (1.47003 1.47003 -1.07022e+06) (26.8285 26.8285 -2.10203e+06) (11.3748 11.3748 -3.92371e+06) (0.382397 0.382397 -3.163e+06) (-7.6207 -7.6207 -2.52456e+06) (-5.19404 -5.19404 -2.30548e+06) (2.52285 2.52285 -2.4044e+06)
3000          (-0.410219 -0.410219 -1.09455e+06) (-0.164195 -0.164195 -1.09224e+06) (-0.0201139 -0.0201138 -1.08642e+06) (-0.314149 -0.314149 -1.07723e+06) (-1.69511 -1.69511 -1.0646e+06) (20.3224 20.3224 -2.09186e+06) (11.1905 11.1905 -3.9184e+06) (0.483676 0.483676 -3.17855e+06) (-7.1987 -7.1987 -2.54806e+06) (-5.06453 -5.06453 -2.31655e+06) (2.29605 2.29605 -2.39837e+06)
3050          (-0.418251 -0.418251 -1.08819e+06) (-0.232727 -0.232727 -1.08595e+06) (-0.234273 -0.234273 -1.08031e+06) (0.23413 0.23413 -1.07139e+06) (1.49528 1.49528 -1.05914e+06) (24.751 24.751 -2.08198e+06) (10.8811 10.8811 -3.91304e+06) (0.845767 0.845767 -3.19323e+06) (-6.763 -6.763 -2.57075e+06) (-4.97458 -4.97458 -2.32764e+06) (1.97935 1.97935 -2.39307e+06)
3100          (-0.409607 -0.409607 -1.08202e+06) (-0.143384 -0.143384 -1.07985e+06) (-0.146169 -0.146169 -1.07437e+06) (-0.563822 -0.563822 -1.06572e+06) (-1.56616 -1.56616 -1.05385e+06) (19.5516 19.5516 -2.07239e+06) (10.7498 10.7498 -3.90764e+06) (1.00764 1.00764 -3.20711e+06) (-6.39637 -6.39637 -2.59266e+06) (-4.87237 -4.87237 -2.33876e+06) (1.73794 1.73794 -2.38845e+06)
3150          (-0.383552 -0.383552 -1.07603e+06) (-0.211014 -0.211014 -1.07393e+06) (-0.100113 -0.100113 -1.06861e+06) (0.382363 0.382363 -1.06022e+06) (1.28138 1.28138 -1.0487e+06) (22.8403 22.8403 -2.06307e+06) (10.4436 10.4436 -3.9022e+06) (1.26554 1.26554 -3.22021e+06) (-5.98469 -5.98469 -2.61381e+06) (-4.76172 -4.76172 -2.34987e+06) (1.46728 1.46728 -2.3845e+06)
3200          (0.851723 0.851723 -1.07023e+06) (0.276569 0.276569 -1.06818e+06) (0.0989276 0.0989277 -1.06303e+06) (-0.153711 -0.153711 -1.05489e+06) (-0.41033 -0.41033 -1.04371e+06) (16.4819 16.4819 -2.05398e+06) (10.512 10.512 -3.89673e+06) (1.62914 1.62914 -3.23258e+06) (-5.55589 -5.55589 -2.63422e+06) (-4.64926 -4.64926 -2.36098e+06) (1.21812 1.21812 -2.38119e+06)
3250          (-0.560627 -0.560627 -1.0646e+06) (-0.210185 -0.210185 -1.06261e+06) (-0.0973026 -0.0973026 -1.0576e+06) (0.0415471 0.0415471 -1.0497e+06) (0.0344907 0.0344907 -1.03885e+06) (19.6836 19.6836 -2.04518e+06) (10.3104 10.3104 -3.89122e+06) (1.66552 1.66552 -3.24427e+06) (-5.40406 -5.40406 -2.65393e+06) (-4.65189 -4.65189 -2.37208e+06) (1.01395 1.01395 -2.3785e+06)
3300          (-0.515568 -0.515568 -1.05913e+06) (-0.112778 -0.112778 -1.0572e+06) (0.0774343 0.0774344 -1.05234e+06) (0.299941 0.299941 -1.04467e+06) (0.417252 0.417252 -1.03413e+06) (21.8246 21.8246 -2.03661e+06) (11.9841 11.9841 -3.88569e+06) (2.22086 2.22086 -3.2553e+06) (-5.92887 -5.92887 -2.67294e+06) (-5.34873 -5.34873 -2.38314e+06) (0.900672 0.900672 -2.37639e+06)
3350          (0.861765 0.861765 -1.05382e+06) (0.231344 0.231344 -1.05195e+06) (0.0242277 0.0242278 -1.04723e+06) (-0.209152 -0.209152 -1.03978e+06) (-0.441562 -0.441562 -1.02956e+06) (12.6448 12.6448 -2.02823e+06) (8.88491 8.88491 -3.88014e+06) (1.96191 1.96191 -3.26571e+06) (-4.03537 -4.03537 -2.6913e+06) (-3.88069 -3.88069 -2.39418e+06) (0.509472 0.509472 -2.37485e+06)
3400          (0.295459 0.295459 -1.04867e+06) (-0.0663339 -0.0663339 -1.04686e+06) (-0.28308 -0.28308 -1.04227e+06) (-0.519916 -0.519916 -1.03503e+06) (-0.663197 -0.663197 -1.02509e+06) (-1.38994 -1.38994 -2.01995e+06) (0.351003 0.351003 -3.87458e+06) (0.790823 0.790823 -3.27555e+06) (0.839969 0.839969 -2.70903e+06) (0.411396 0.411396 -2.40518e+06) (-0.00511302 -0.00511302 -2.37384e+06)
3450          (-1.44077 -1.44077 -1.04367e+06) (-0.570786 -0.570786 -1.0419e+06) (-0.330798 -0.330798 -1.03744e+06) (-0.0131408 -0.0131408 -1.03041e+06) (0.843986 0.843986 -1.02075e+06) (-0.0564373 -0.0564374 -2.01204e+06) (-0.0837711 -0.0837711 -3.86901e+06) (0.373442 0.373442 -3.28482e+06) (0.592632 0.592632 -2.72613e+06) (0.354739 0.354739 -2.41612e+06) (0.00111385 0.00111385 -2.37335e+06)
3500          (-0.392601 -0.392601 -1.0388e+06) (-0.0630976 -0.0630976 -1.03708e+06) (0.117872 0.117872 -1.03275e+06) (0.290058 0.290058 -1.02591e+06) (0.51463 0.51463 -1.01652e+06) (17.1916 17.1916 -2.00451e+06) (10.1091 10.1091 -3.86344e+06) (2.90443 2.90443 -3.29355e+06) (-3.71738 -3.71738 -2.74261e+06) (-4.21722 -4.21722 -2.427e+06) (-0.0404112 -0.0404112 -2.37336e+06)
3550          (0.968085 0.968085 -1.03408e+06) (0.0276564 0.0276564 -1.03241e+06) (-0.511077 -0.511077 -1.0282e+06) (-0.958954 -0.958954 -1.02155e+06) (-1.28979 -1.28979 -1.01241e+06) (2.90498 2.90498 -1.99683e+06) (1.71496 1.71496 -3.85786e+06) (1.24548 1.24548 -3.3018e+06) (0.438945 0.438945 -2.75855e+06) (-0.0811791 -0.0811791 -2.43783e+06) (0.0114269 0.0114269 -2.37384e+06)
3600          (-1.18538 -1.18538 -1.0295e+06) (-0.432145 -0.432145 -1.02787e+06) (-0.1893 -0.1893 -1.02377e+06) (-0.093042 -0.093042 -1.01731e+06) (-0.299179 -0.299179 -1.00841e+06) (4.4605 4.4605 -1.98949e+06) (1.43844 1.43844 -3.85228e+06) (0.980371 0.980371 -3.30957e+06) (0.330091 0.330091 -2.77392e+06) (-0.0628318 -0.0628318 -2.44859e+06) (0.00627903 0.00627904 -2.37477e+06)
3650          (1.1064 1.1064 -1.02504e+06) (-0.0137321 -0.0137321 -1.02346e+06) (-0.695602 -0.695602 -1.01947e+06) (-1.36776 -1.36776 -1.01317e+06) (-1.51662 -1.51662 -1.00452e+06) (5.09531 5.09531 -1.98233e+06) (1.27455 1.27455 -3.8467e+06) (1.04987 1.04987 -3.31688e+06) (0.499656 0.499656 -2.78876e+06) (0.0383005 0.0383005 -2.45928e+06) (0.00785986 0.00785986 -2.37613e+06)
3700          (-2.02359 -2.02359 -1.02072e+06) (-0.447817 -0.447817 -1.01918e+06) (0.304177 0.304177 -1.01528e+06) (0.637406 0.637406 -1.00915e+06) (0.288774 0.288774 -1.00073e+06) (0.964118 0.964118 -1.97535e+06) (0.7712 0.7712 -3.84113e+06) (0.80312 0.80312 -3.32377e+06) (0.533611 0.53361 -2.80308e+06) (0.147339 0.147339 -2.46989e+06) (0.0168362 0.0168362 -2.37791e+06)
3750          (1.3597 1.3597 -1.01651e+06) (0.0228998 0.0228998 -1.01501e+06) (-0.726864 -0.726864 -1.01122e+06) (-1.11636 -1.11636 -1.00524e+06) (-0.950375 -0.950375 -997025) (2.22967 2.22967 -1.96854e+06) (0.947923 0.947923 -3.83556e+06) (1.00527 1.00527 -3.33025e+06) (0.733332 0.733332 -2.81691e+06) (0.281847 0.281847 -2.48042e+06) (0.0356848 0.0356848 -2.38007e+06)
3800          (-1.96528 -1.96528 -1.01242e+06) (-0.420311 -0.420311 -1.01095e+06) (0.275438 0.275438 -1.00725e+06) (0.563946 0.563946 -1.00143e+06) (0.250987 0.250987 -993420) (1.29459 1.29459 -1.96191e+06) (0.650639 0.650639 -3.83001e+06) (0.730847 0.730847 -3.33634e+06) (0.579998 0.579998 -2.83026e+06) (0.260041 0.260041 -2.49086e+06) (0.0430603 0.0430603 -2.38261e+06)
3850          (1.26255 1.26255 -1.00842e+06) (0.0248488 0.0248488 -1.00699e+06) (-0.655398 -0.655398 -1.00339e+06) (-1.02765 -1.02765 -997713) (-0.91311 -0.91311 -989911) (2.01935 2.01935 -1.95544e+06) (0.927915 0.927915 -3.82448e+06) (0.97971 0.979711 -3.34206e+06) (0.726296 0.726296 -2.84315e+06) (0.307712 0.307712 -2.50122e+06) (0.0498392 0.0498392 -2.38551e+06)
3900          (1.79387 1.79387 -1.00447e+06) (0.195244 0.195244 -1.00308e+06) (-0.57666 -0.57666 -999570) (-0.990181 -0.990181 -994016) (-0.953916 -0.953916 -986457) (2.14017 2.14017 -1.94987e+06) (-0.00712816 -0.00712819 -3.81898e+06) (0.0332246 0.0332246 -3.34743e+06) (0.15746 0.15746 -2.8556e+06) (0.162531 0.162531 -2.5115e+06) (-0.0183144 -0.0183144 -2.38875e+06)
3950          (1.1854 1.1854 -1.00092e+06) (-0.0846203 -0.0846204 -999552) (-0.818297 -0.818297 -996102) (-1.29537 -1.29537 -990670) (-0.87495 -0.874949 -983131) (2.53142 2.53142 -1.94208e+06) (2.24692 2.24692 -3.81351e+06) (1.46143 1.46143 -3.35248e+06) (0.374423 0.374423 -2.86762e+06) (-0.21622 -0.216221 -2.52168e+06) (-0.124967 -0.124967 -2.39229e+06)
4000          (-0.774461 -0.774461 -997356) (-0.293664 -0.293664 -996009) (-0.161482 -0.161482 -992614) (-0.0949162 -0.0949162 -987246) (-0.259226 -0.259226 -979836) (15.1025 15.1025 -1.93596e+06) (7.67654 7.67654 -3.80802e+06) (3.62944 3.62944 -3.3572e+06) (-0.872709 -0.872709 -2.87923e+06) (-2.56689 -2.56689 -2.53176e+06) (-1.20667 -1.20667 -2.39614e+06)