# Probe 0 (0.0015 0.0015 0)
# Probe 1 (0.0015 0.0015 0.01)
# Probe 2 (0.0015 0.0015 0.02)
# Probe 3 (0.0015 0.0015 0.03)
# Probe 4 (0.0015 0.0015 0.04)
# Probe 5 (0.0015 0.0015 0.05)
# Probe 6 (0.0015 0.0015 0.06)
# Probe 7 (0.0015 0.0015 0.07)
# Probe 8 (0.0015 0.0015 0.08)
# Probe 9 (0.0015 0.0015 0.09)
# Probe 10 (0.0015 0.0015 0.1)
# Time        0             1             2             3             4             5             6             7             8             9             10           
50            100000        100000        100000        100000        100000        100000        100000        100000        100000        100000        100000       
100           100000        100000        100000        100000        100000        100000        100000        100000        100000        100000        100000       
150           100000        100000        100000        100000        100000        100000        100000        100000        100000        100000        100000       
200           100000        100000        100000        100000        100000        100000        100000        100000        100000        100000        100000       
250           100000        100000        100000        100000        100000        100000        100000        100000        100000        100000        100000       
300           100000        100000        100000        100000        100000        100000        100000        100000        100000        100000        100000       
350           100000        100000        100000        100000        100000        100000        100000        100000        100000        100000        100000       
400           100000        100000        100000        100000        100000        100000        100000        100000        100000        100000        100000       
450           100000        100000        100000        100000        100000        100000        100000        100000        100000        100000        100000       
500           100000        100000        100000        100000        100000        100000        100000        100000        100000        100000        100000       
550           100000        100000        100000        100000        100000        100000        100000        100000        100000        100000        100000       
600           100000        100000        100000        100000        100000        100000        100000        100000        100000        100000        100000       
650           100000        100000        100000        100000        100000        100000        100000        100000        100000        100000        100000       
700           100000        100000        100000        100000        100000        100000        100000        100000        100000        100000        100000       
750           100000        100000        100000        100000        100000        100000        100000        100000        100000        100000        100000       
800           100000        100000        100000        100000        100000        100000        100000        100000        100000        100000        100000       
850           100000        100000        100000        100000        100000        100000        100000        100000        100000        100000        100000       
900           100000        100000        100000        100000        100000        100000        100000        100000        100000        100000        100000       
950           100000        100000        100000        100000        100000        100000        100000        100000        100000        100000        100000       
1000          100000        100000        100000        100000        100000        100000        100000        100000        100000        100000        100000       
1050          100000        100000        100000        100000        100000        100000        100000        100000        100000        100000        100000       
1100          100000        100000        100000        100000        100000        100000        100000        100000        100000        100000        100000       
1150          100000        100000        100000        100000        100000        100000        100000        100000        100000        100000        100000       
1200          100000        100000        100000        100000        100000        100000        100000        100000        100000        100000        100000       
1250          100000        100000        100000        100000        100000        100000        100000        100000        100000        100000        100000       
1300          100000        100000        100000        100000        100000        100000        100000        100000        100000        100000        100000       
1350          100000        100000        100000        100000        100000        100000        100000        100000        100000        100000        100000       
1400          100000        100000        100000        100000        100000        100000        100000        100000        100000        100000        100000       
1450          100000        100000        100000        100000        100000        100000        100000        100000        100000        100000        100000       
1500          100000        100000        100000        100000        100000        100000        100000        100000        100000        100000        100000       
1550          100000        100000        100000        100000        100000        100000        100000        100000        100000        100000        100000       
1600          100000        100000        100000        100000        100000        100000        100000        100000        100000        100000        100000       
1650          100000        100000        100000        100000        100000        100000        100000        100000        100000        100000        100000       
1700          100000        100000        100000        100000        100000        100000        100000        100000        100000        100000        100000       
1750          100000        100000        100000        100000        100000        100000        100000        100000        100000        100000        100000       
1800          100000        100000        100000        100000        100000        100000        100000        100000        100000        100000        100000       
1850          100000        100000        100000        100000        100000        100000        100000        100000        100000        100000        100000       
1900          100000        100000        100000        100000        100000        100000        100000        100000        100000        100000        100000       
1950          100000        100000        100000        100000        100000        100000        100000        100000        100000        100000        100000       
2000          100000        100000        100000        100000        100000        100000        100000        100000        100000        100000        100000       
2050          100000        100000        100000        100000        100000        100000        100000        100000        100000        100000        100000       
2100          100000        100000        100000        100000        100000        100000        100000        100000        100000        100000        100000       
2150          100000        100000        100000        100000        100000        100000        100000        100000        100000        100000        100000       
2200          100000        100000        100000        100000        100000        100000        100000        100000        100000        100000        100000       
2250          100000        100000        100000        100000        100000        100000        100000        100000        100000        100000        100000       
2300          100000        100000        100000        100000        100000        100000        100000        100000        100000        100000        100000       
2350          100000        100000        100000        100000        100000        100000        100000        100000        100000        100000        100000       
2400          100000        100000        100000        100000        100000        100000        100000        100000        100000        100000        100000       
2450          100000        100000        100000        100000        100000        100000        100000        100000        100000        100000        100000       
2500          100000        100000        100000        100000        100000        100000        100000        100000        100000        100000        100000       
2550          100000        100000        100000        100000        100000        100000        100000        100000        100000        100000        100000       
2600          100000        100000        100000        100000        100000        100000        100000        100000        100000        100000        100000       
2650          100000        100000        100000        100000        100000        100000        100000        100000        100000        100000        100000       
2700          100000        100000        100000        100000        100000        100000        100000        100000        100000        100000        100000       
2750          100000        100000        100000        100000        100000        100000        100000        100000        100000        100000        100000       
2800          100000        100000        100000        100000        100000        100000        100000        100000        100000        100000        100000       
2850          100000        100000        100000        100000        100000        100000        100000        100000        100000        100000        100000       
2900          100000        100000        100000        100000        100000        100000        100000        100000        100000        100000        100000       
2950          100000        100000        100000        100000        100000        100000        100000        100000        100000        100000        100000       
3000          100000        100000        100000        100000        100000        100000        100000        100000        100000        100000        100000       
3050          100000        100000        100000        100000        100000        100000        100000        100000        100000        100000        100000       
3100          100000        100000        100000        100000        100000        100000        100000        100000        100000        100000        100000       
3150          100000        100000        100000        100000        100000        100000        100000        100000        100000        100000        100000       
3200          100000        100000        100000        100000        100000        100000        100000        100000        100000        100000        100000       
3250          100000        100000        100000        100000        100000        100000        100000        100000        100000        100000        100000       
3300          100000        100000        100000        100000        100000        100000        100000        100000        100000        100000        100000       
3350          100000        100000        100000        100000        100000        100000        100000        100000        100000        100000        100000       
3400          100000        100000        100000        100000        100000        100000        100000        100000        100000        100000        100000       
3450          100000        100000        100000        100000        100000        100000        100000        100000        100000        100000        100000       
3500          100000        100000        100000        100000        100000        100000        100000        100000        100000        100000        100000       
3550          100000        100000        100000        100000        100000        100000        100000        100000        100000        100000        100000       
3600          100000        100000        100000        100000        100000        100000        100000        100000        100000        100000        100000       
3650          100000        100000        100000        100000        100000        100000        100000        100000        100000        100000        100000       
3700          100000        100000        100000        100000        100000        100000        100000        100000        100000        100000        100000       
3750          100000        100000        100000        100000        100000        100000        100000        100000        100000        100000        100000       
3800          100000        100000        100000        100000        100000        100000        100000        100000        100000        100000        100000       
3850          100000        100000        100000        100000        100000        100000        100000        100000        100000        100000        100000       
3900          100000        100000        100000        100000        100000        100000        100000        100000        100000        100000        100000       
3950          100000        100000        100000        100000        100000        100000        100000        100000        100000        100000        100000       
4000          100000        100000        100000        100000        100000        100000        100000        100000        100000        100000        100000       
4050          100000        100000        100000        100000        100000        100000        100000        100000        100000        100000        100000       
4100          100000        100000        100000        100000        100000        100000        100000        100000        100000        100000        100000       
4150          100000        100000        100000        100000        100000        100000        100000        100000        100000        100000        100000       
4200          100000        100000        100000        100000        100000        100000        100000        100000        100000        100000        100000       
4250          100000        100000        100000        100000        100000        100000        100000        100000        100000        100000        100000       
4300          100000        100000        100000        100000        100000        100000        100000        100000        100000        100000        100000       
4350          100000        100000        100000        100000        100000        100000        100000        100000        100000        100000        100000       
4400          100000        100000        100000        100000        100000        100000        100000        100000        100000        100000        100000       
4450          100000        100000        100000        100000        100000        100000        100000        100000        100000        100000        100000       
4500          100000        100000        100000        100000        100000        100000        100000        100000        100000        100000        100000       
4550          100000        100000        100000        100000        100000        100000        100000        100000        100000        100000        100000       
4600          100000        100000        100000        100000        100000        100000        100000        100000        100000        100000        100000       
4650          100000        100000        100000        100000        100000        100000        100000        100000        100000        100000        100000       
4700          100000        100000        100000        100000        100000        100000        100000        100000        100000        100000        100000       
4750          100000        100000        100000        100000        100000        100000        100000        100000        100000        100000        100000       
4800          100000        100000        100000        100000        100000        100000        100000        100000        100000        100000        100000       
4850          100000        100000        100000        100000        100000        100000        100000        100000        100000        100000        100000       
4900          100000        100000        100000        100000        100000        100000        100000        100000        100000        100000        100000       
4950          100000        100000        100000        100000        100000        100000        100000        100000        100000        100000        100000       
5000          100000        100000        100000        100000        100000        100000        100000        100000        100000        100000        100000       
5050          100000        100000        100000        100000        100000        100000        100000        100000        100000        100000        100000       
5100          100000        100000        100000        100000        100000        100000        100000        100000        100000        100000        100000       
5150          100000        100000        100000        100000        100000        100000        100000        100000        100000        100000        100000       
5200          100000        100000        100000        100000        100000        100000        100000        100000        100000        100000        100000       
5250          100000        100000        100000        100000        100000        100000        100000        100000        100000        100000        100000       
5300          100000        100000        100000        100000        100000        100000        100000        100000        100000        100000        100000       
5350          100000        100000        100000        100000        100000        100000        100000        100000        100000        100000        100000       
5400          100000        100000        100000        100000        100000        100000        100000        100000        100000        100000        100000       
5450          100000        100000        100000        100000        100000        100000        100000        100000        100000        100000        100000       
5500          100000        100000        100000        100000        100000        100000        100000        100000        100000        100000        100000       
5550          100000        100000        100000        100000        100000        100000        100000        100000        100000        100000        100000       
5600          100000        100000        100000        100000        100000        100000        100000        100000        100000        100000        100000       
5650          100000        100000        100000        100000        100000        100000        100000        100000        100000        100000        100000       
5700          100000        100000        100000        100000        100000        100000        100000        100000        100000        100000        100000       
5750          100000        100000        100000        100000        100000        100000        100000        100000        100000        100000        100000       
5800          100000        100000        100000        100000        100000        100000        100000        100000        100000        100000        100000       
5850          100000        100000        100000        100000        100000        100000        100000        100000        100000        100000        100000       
5900          100000        100000        100000        100000        100000        100000        100000        100000        100000        100000        100000       
5950          100000        100000        100000        100000        100000        100000        100000        100000        100000        100000        100000       
6000          100000        100000        100000        100000        100000        100000        100000        100000        100000        100000        100000       
6050          100000        100000        100000        100000        100000        100000        100000        100000        100000        100000        100000       
6100          100000        100000        100000        100000        100000        100000        100000        100000        100000        100000        100000       
6150          100000        100000        100000        100000        100000        100000        100000        100000        100000        100000        100000       
6200          100000        100000        100000        100000        100000        100000        100000        100000        100000        100000        100000       
6250          100000        100000        100000        100000        100000        100000        100000        100000        100000        100000        100000       
6300          100000        100000        100000        100000        100000        100000        100000        100000        100000        100000        100000       
6350          100000        100000        100000        100000        100000        100000        100000        100000        100000        100000        100000       
6400          100000        100000        100000        100000        100000        100000        100000        100000        100000        100000        100000       
6450          100000        100000        100000        100000        100000        100000        100000        100000        100000        100000        100000       
6500          100000        100000        100000        100000        100000        100000        100000        100000        100000        100000        100000       
6550          100000        100000        100000        100000        100000        100000        100000        100000        100000        100000        100000       
6600          100000        100000        100000        100000        100000        100000        100000        100000        100000        100000        100000       
6650          100000        100000        100000        100000        100000        100000        100000        100000        100000        100000        100000       
6700          100000        100000        100000        100000        100000        100000        100000        100000        100000        100000        100000       
6750          100000        100000        100000        100000        100000        100000        100000        100000        100000        100000        100000       
6800          100000        100000        100000        100000        100000        100000        100000        100000        100000        100000        100000       
6850          100000        100000        100000        100000        100000        100000        100000        100000        100000        100000        100000       
6900          100000        100000        100000        100000        100000        100000        100000        100000        100000        100000        100000       
6950          100000        100000        100000        100000        100000        100000        100000        100000        100000        100000        100000       
7000          100000        100000        100000        100000        100000        100000        100000        100000        100000        100000        100000       
7050          100000        100000        100000        100000        100000        100000        100000        100000        100000        100000        100000       
7100          100000        100000        100000        100000        100000        100000        100000        100000        100000        100000        100000       
7150          100000        100000        100000        100000        100000        100000        100000        100000        100000        100000        100000       
7200          100000        100000        100000        100000        100000        100000        100000        100000        100000        100000        100000       
7250          100000        100000        100000        100000        100000        100000        100000        100000        100000        100000        100000       
7300          100000        100000        100000        100000        100000        100000        100000        100000        100000        100000        100000       
7350          100000        100000        100000        100000        100000        100000        100000        100000        100000        100000        100000       
7400          100000        100000        100000        100000        100000        100000        100000        100000        100000        100000        100000       
7450          100000        100000        100000        100000        100000        100000        100000        100000        100000        100000        100000       
7500          100000        100000        100000        100000        100000        100000        100000        100000        100000        100000        100000       
7550          100000        100000        100000        100000        100000        100000        100000        100000        100000        100000        100000       
7600          100000        100000        100000        100000        100000        100000        100000        100000        100000        100000        100000       
7650          100000        100000        100000        100000        100000        100000        100000        100000        100000        100000        100000       
7700          100000        100000        100000        100000        100000        100000        100000        100000        100000        100000        100000       
7750          100000        100000        100000        100000        100000        100000        100000        100000        100000        100000        100000       
7800          100000        100000        100000        100000        100000        100000        100000        100000        100000        100000        100000       
7850          100000        100000        100000        100000        100000        100000        100000        100000        100000        100000        100000       
7900          100000        100000        100000        100000        100000        100000        100000        100000        100000        100000        100000       
7950          100000        100000        100000        100000        100000        100000        100000        100000        100000        100000        100000       
8000          100000        100000        100000        100000        100000        100000        100000        100000        100000        100000        100000       
8050          100000        100000        100000        100000        100000        100000        100000        100000        100000        100000        100000       
8100          100000        100000        100000        100000        100000        100000        100000        100000        100000        100000        100000       
8150          100000        100000        100000        100000        100000        100000        100000        100000        100000        100000        100000       
8200          100000        100000        100000        100000        100000        100000        100000        100000        100000        100000        100000       
8250          100000        100000        100000        100000        100000        100000        100000        100000        100000        100000        100000       
8300          100000        100000        100000        100000        100000        100000        100000        100000        100000        100000        100000       
8350          100000        100000        100000        100000        100000        100000        100000        100000        100000        100000        100000       
8400          100000        100000        100000        100000        100000        100000        100000        100000        100000        100000        100000       
8450          100000        100000        100000        100000        100000        100000        100000        100000        100000        100000        100000       
8500          100000        100000        100000        100000        100000        100000        100000        100000        100000        100000        100000       
8550          100000        100000        100000        100000        100000        100000        100000        100000        100000        100000        100000       
8600          100000        100000        100000        100000        100000        100000        100000        100000        100000        100000        100000       
8650          100000        100000        100000        100000        100000        100000        100000        100000        100000        100000        100000       
8700          100000        100000        100000        100000        100000        100000        100000        100000        100000        100000        100000       
8750          100000        100000        100000        100000        100000        100000        100000        100000        100000        100000        100000       