# Probe 0 (0.0015 0.0015 0)
# Probe 1 (0.0015 0.0015 0.01)
# Probe 2 (0.0015 0.0015 0.02)
# Probe 3 (0.0015 0.0015 0.03)
# Probe 4 (0.0015 0.0015 0.04)
# Probe 5 (0.0015 0.0015 0.05)
# Probe 6 (0.0015 0.0015 0.06)
# Probe 7 (0.0015 0.0015 0.07)
# Probe 8 (0.0015 0.0015 0.08)
# Probe 9 (0.0015 0.0015 0.09)
# Probe 10 (0.0015 0.0015 0.1)
# Time        0             1             2             3             4             5             6             7             8             9             10           
50            (-0.0204367 -0.0204367 14965.7) (-0.00882934 -0.00882934 11760.6) (0.0021107 0.0021107 6060.42) (0.00208779 0.00208779 2318.69) (0.000763841 0.000763841 700.455) (-0.000735246 -0.000735246 85.8779) (7.83642e-05 7.83642e-05 -2.2412) (9.92838e-06 9.92838e-06 -0.0058525) (3.9328e-05 3.9328e-05 0.0698902) (-0.0019346 -0.0019346 38.0544) (0.02658 0.02658 4577.97)
100           (0.0407993 0.0407993 10720.7) (0.0292468 0.0292468 9704.25) (0.0121513 0.0121513 7232.21) (0.00250424 0.00250424 4288.27) (0.00799626 0.00799626 2046.34) (0.0404644 0.0404644 653.483) (0.000274206 0.000274206 0.377938) (-1.52447e-06 -1.52446e-06 -0.0361377) (5.68475e-05 5.68475e-05 0.79686) (0.00352671 0.00352671 130.119) (-0.0321684 -0.0321684 3850.86)
150           (-0.0396794 -0.0396794 8773.28) (-0.0281236 -0.0281236 8243.42) (-0.0247118 -0.0247118 6901.29) (-0.0124065 -0.0124065 5009.53) (-0.0064006 -0.0064006 3088.27) (-0.149523 -0.149523 1321.37) (0.00377587 0.00377587 20.4992) (1.31592e-05 1.31592e-05 -0.0122686) (0.000564798 0.000564798 3.4242) (0.0199193 0.0199193 243.392) (-0.049101 -0.049101 3366.49)
200           (0.0141547 0.0141547 7601.92) (0.0113766 0.0113766 7266.75) (0.0116132 0.0116132 6409.98) (0.00995742 0.00995742 5134.85) (0.00154772 0.00154772 3670.15) (0.104793 0.104793 1872.68) (-0.000387846 -0.000387846 67.186) (-2.31365e-05 -2.31365e-05 0.4293) (-0.000148627 -0.000148627 9.14039) (-0.000838312 -0.000838312 352.695) (-0.00840126 -0.00840126 3021.14)
250           (0.0122382 0.0122382 6804.27) (0.0100579 0.0100579 6570.34) (0.0109236 0.0109236 5971.25) (0.0106482 0.0106482 5059.32) (0.0033321 0.0033321 3948.58) (0.140514 0.140514 2248.39) (-0.000654871 -0.000654871 141.695) (-5.9549e-05 -5.95491e-05 2.02254) (-0.000239285 -0.000239285 18.5225) (-0.00107324 -0.00107324 447.62) (-0.00738182 -0.00738182 2761.15)
300           (-0.00687277 -0.00687277 6221.86) (-0.00600484 -0.00600484 6048.64) (-0.00692105 -0.00692105 5605) (-0.00599984 -0.00599984 4921.25) (-0.00633747 -0.00633747 4060.45) (-0.129776 -0.129776 2479.83) (0.000501638 0.000501638 238.899) (1.56565e-05 1.56565e-05 5.76415) (0.000119882 0.000119882 31.462) (0.000690787 0.000690787 526.136) (0.00278889 0.00278889 2557.16)
350           (-0.0026793 -0.0026793 5776.82) (-0.00119523 -0.00119523 5643.03) (-0.00127654 -0.00127654 5300.33) (-0.000340176 -0.000340176 4767.7) (-0.00555475 -0.00555475 4081.47) (-0.0608349 -0.0608349 2612.22) (0.0155277 0.0155277 350.746) (0.00108101 0.00108101 12.6881) (0.00285852 0.00285852 47.4112) (0.0118761 0.0118761 589.617) (-0.0242281 -0.0242281 2391.93)
400           (0.00214213 0.00214213 5424.6) (0.00137106 0.00137106 5317.72) (0.00354979 0.00354979 5043.85) (0.00372292 0.00372292 4615.4) (0.00405467 0.00405467 4053.9) (0.0871603 0.0871603 2682.06) (-0.0109534 -0.0109534 469.034) (-0.00127822 -0.00127822 23.6467) (-0.00265343 -0.00265343 65.654) (-0.00823121 -0.00823121 640.371) (0.0144351 0.0144351 2254.74)
450           (0.00641788 0.00641788 5137.5) (0.00542407 0.00542407 5049.72) (0.00655296 0.00655296 4824.68) (0.0077837 0.0077837 4470.78) (0.00394326 0.00394326 4001.18) (0.185782 0.185782 2711.53) (-0.011318 -0.011318 587.021) (-0.00196534 -0.00196534 39.2088) (-0.00305322 -0.00305322 85.5234) (-0.00691548 -0.00691548 680.719) (0.00953439 0.00953439 2138.56)
500           (-0.00162173 -0.00162173 4897.82) (-0.00132896 -0.00132896 4824.01) (-0.00195781 -0.00195781 4634.72) (-0.00126131 -0.00126131 4335.91) (-0.00728842 -0.00728842 3934.79) (-0.0851237 -0.0851237 2716.03) (0.0133411 0.0133411 699.969) (0.00274569 0.00274569 59.573) (0.00358081 0.00358081 106.459) (0.00665715 0.00665715 712.687) (-0.0124421 -0.0124421 2038.59)
550           (-0.00976192 -0.00976192 4693.69) (-0.00682166 -0.00682166 4630.36) (-0.00765381 -0.00765381 4467.93) (-0.00721902 -0.00721902 4210.74) (-0.014192 -0.014192 3862.24) (-0.275615 -0.275615 2704.17) (0.0165148 0.0165148 805.01) (0.00503621 0.00503621 84.6436) (0.00564938 0.00564938 128.066) (0.00841813 0.00841813 737.947) (-0.0128297 -0.0128297 1951.39)
600           (-0.00805945 -0.00805945 4516.55) (-0.00430308 -0.00430308 4461.35) (-0.003783 -0.003783 4319.73) (-0.00359093 -0.00359093 4094.98) (-0.00920961 -0.00920961 3788.77) (-0.166298 -0.166298 2683.01) (0.00535273 0.00535273 900.766) (0.00238887 0.00238887 114.042) (0.00231996 0.00231996 150.069) (0.00276958 0.00276958 757.844) (-0.00361672 -0.00361672 1874.48)
650           (-0.00701827 -0.00701827 4360.65) (-0.00363492 -0.00363492 4311.89) (-0.00310137 -0.00310137 4186.81) (-0.00291966 -0.00291966 3987.98) (-0.00819116 -0.00819116 3715.92) (-0.145815 -0.145815 2655.87) (0.00401403 0.00401403 986.794) (0.00237991 0.00237991 147.23) (0.00212504 0.00212504 172.305) (0.00213561 0.00213561 773.452) (-0.00284324 -0.00284324 1805.98)
700           (0.0057091 0.0057091 4222.14) (0.00856722 0.00856722 4178.57) (0.00923796 0.00923796 4066.79) (0.00946395 0.00946395 3888.71) (0.0098219 0.0098219 3644.21) (0.235342 0.235342 2625.42) (-0.0164086 -0.0164086 1063.26) (-0.0109471 -0.0109471 183.596) (-0.00907156 -0.00907156 194.692) (-0.00794083 -0.00794083 785.62) (0.0153296 0.0153296 1744.48)
750           (-0.0159994 -0.0159994 4097.52) (-0.000963954 -0.000963954 4058.19) (-0.00537894 -0.00537894 3957.32) (-0.0109021 -0.0109021 3796.49) (-0.0210864 -0.0210864 3575.17) (-0.541671 -0.541671 2592.22) (0.0240894 0.0240894 1130.77) (0.0218948 0.0218948 222.454) (0.0172642 0.0172642 217.18) (0.0126644 0.0126644 795.039) (-0.0276208 -0.0276208 1688.86)
800           (-0.00179635 -0.00179635 3984.47) (0.0113605 0.0113605 3948.71) (0.00553782 0.00553782 3857.01) (0.000809247 0.000809247 3710.75) (-0.00123994 -0.00123994 3509.17) (-0.0287911 -0.0287911 2558.8) (-0.0231349 -0.0231349 1190.12) (-0.0202818 -0.0202818 263.147) (-0.0157075 -0.0157075 239.749) (-0.0114061 -0.0114061 802.264) (0.0301951 0.0301951 1638.26)
850           (-0.00100238 -0.00100238 3881.15) (0.00983233 0.00983233 3848.43) (0.00274373 0.00274373 3764.54) (-0.00262377 -0.00262377 3630.71) (-0.00619087 -0.00619087 3446) (-0.00224471 -0.00224471 2524.77) (-0.0260165 -0.0260165 1242.13) (-0.0176477 -0.0176477 305.073) (-0.0137144 -0.0137144 262.397) (-0.0107055 -0.0107055 807.743) (0.0251159 0.0251159 1591.95)
900           (0.0129528 0.0129528 3786.25) (0.00779583 0.00779583 3756.12) (0.00950872 0.00950872 3678.96) (0.00907674 0.00907674 3555.84) (0.0224235 0.0224235 3385.95) (0.512069 0.512069 2491.45) (0.0227411 0.0227411 1287.61) (-0.00339286 -0.00339286 347.673) (-0.00193687 -0.00193687 285.111) (0.0035865 0.0035865 811.845) (-0.00102695 -0.00102695 1549.38)
950           (0.0412209 0.0416093 3698.61) (0.0184358 0.0150837 3670.73) (0.0172938 0.0174795 3599.36) (0.0104145 0.020061 3485.46) (-0.0127159 -0.0178594 3328.17) (0.0881651 0.0870412 2458.09) (-0.00490669 -0.00615361 1327.41) (-0.0154704 -0.0137974 390.472) (-0.00706593 -0.0148846 307.885) (-0.00201696 -0.00737637 814.868) (0.0135588 0.0129233 1510.08)
1000          (0.00555609 0.00534975 3617.26) (0.00586295 -0.000449722 3591.35) (0.00265309 0.0019745 3525.07) (-0.00711324 0.0126383 3419.28) (0.0117835 0.00100256 3273.13) (0.139242 0.132179 2425.36) (0.00863223 -0.0142245 1362.14) (-0.000410185 -0.0195777 433.084) (0.0577196 -0.0727281 330.712) (0.04239 -0.0481094 817.055) (0.0130863 0.00388865 1473.65)
1050          (0.00515372 0.00508934 3541.45) (0.00289656 0.00216879 3517.29) (0.00227839 0.00203816 3455.51) (0.00139004 0.00378062 3356.93) (0.00674647 0.00528754 3220.68) (0.130341 0.12542 2393.53) (0.0085486 -0.0120683 1392.41) (0.0115933 -0.0309365 475.182) (0.0543177 -0.0691155 353.572) (0.0419279 -0.0470489 818.61) (0.0123436 0.00330955 1439.78)
1100          (0.00482126 0.00481174 3470.56) (0.00241607 0.00233348 3447.96) (0.00204347 0.00199431 3390.21) (0.00227788 0.00257366 3298.05) (0.00577555 0.00557231 3170.64) (0.122449 0.118915 2362.63) (0.0086006 -0.0103884 1418.8) (0.0186067 -0.0372487 516.497) (0.0505679 -0.0651743 376.439) (0.040319 -0.0449697 819.702) (0.0116524 0.00288903 1408.19)
1150          (0.00454122 0.00454 3404.1) (0.00223765 0.0022284 3382.9) (0.00189884 0.00189025 3328.75) (0.00226357 0.00230152 3242.36) (0.00537734 0.00534655 3122.88) (0.115365 0.112893 2332.68) (0.00919642 -0.00953306 1441.79) (0.0228238 -0.0406993 556.82) (0.0470555 -0.0614571 399.28) (0.037929 -0.0422004 820.468) (0.0109615 0.00260928 1378.65)
1200          (-0.000401162 -0.000401163 3341.77) (0.00144455 0.00144455 3321.93) (0.00187995 0.00187995 3270.85) (0.00393783 0.00393783 3189.38) (0.00658663 0.00658663 3077.24) (0.0736619 0.0736593 2302.5) (0.000482333 0.000531684 1461.8) (-0.00728844 -0.00708149 595.989) (-0.00627062 -0.00591213 422.061) (-0.00194521 -0.00165926 821.023) (0.00555747 0.00558716 1350.97)
1250          (0.00286404 0.00286404 3283.07) (0.00175695 0.00175695 3264.26) (0.00142005 0.00142005 3216.2) (0.00111793 0.00111793 3139.25) (0.0024335 0.0024335 3033.16) (0.0731922 0.0731922 2274.38) (0.000919164 0.000920802 1479.25) (-0.00708956 -0.00707679 633.879) (-0.00621564 -0.0061851 444.738) (-0.00175991 -0.00172186 821.463) (0.00538498 0.00539501 1324.97)
1300          (0.00264885 0.00264885 3227.48) (0.00291033 0.00291033 3209.83) (0.00243581 0.00243581 3164.84) (-0.000945581 -0.000945581 3091.14) (0.00342754 0.00342754 2991.54) (0.0879011 0.0879011 2247.29) (0.00162918 0.00162924 1494.47) (-0.00805541 -0.00805463 670.411) (-0.0073299 -0.00732727 467.273) (-0.00198856 -0.00198339 821.863) (0.00601184 0.00601526 1300.52)
1350          (0.00235003 0.00235003 3174.97) (0.00273477 0.00273477 3158.23) (0.00248497 0.00248497 3115.65) (-0.000710544 -0.000710544 3045.87) (0.00323406 0.00323406 2951.57) (0.0846048 0.0846048 2221.15) (0.00202735 0.00202735 1507.7) (-0.00774568 -0.00774564 705.539) (-0.00731279 -0.00731255 489.631) (-0.0019297 -0.00192898 822.283) (0.00578922 0.00579039 1277.48)
1400          (0.00224675 0.00224675 3125.15) (0.00260152 0.00260152 3109.26) (0.00238414 0.00238414 3068.89) (-0.000678374 -0.000678374 3002.74) (0.00307333 0.00307333 2913.38) (0.0807722 0.0807722 2196) (0.00233764 0.00233764 1519.18) (-0.00730313 -0.00730313 739.24) (-0.00716111 -0.00716109 511.773) (-0.00185705 -0.00185695 822.774) (0.00548112 0.00548153 1255.75)
1450          (0.00213464 0.00213464 3077.82) (0.00246994 0.00246994 3062.73) (0.00226812 0.00226812 3024.4) (-0.000664381 -0.000664381 2961.62) (0.00291566 0.00291566 2876.84) (0.0767624 0.0767624 2171.77) (0.00258021 0.00258021 1529.12) (-0.00683362 -0.00683362 771.507) (-0.00696601 -0.00696601 533.666) (-0.00179062 -0.0017906 823.374) (0.00516204 0.00516218 1235.22)
1500          (0.0020269 0.0020269 3032.81) (0.00234884 0.00234884 3018.46) (0.0021622 0.0021622 2982.03) (-0.000645659 -0.000645659 2922.37) (0.00277226 0.00277226 2841.83) (0.0730789 0.0730789 2148.43) (0.00277525 0.00277525 1537.69) (-0.0063839 -0.0063839 802.347) (-0.00677067 -0.00677067 555.274) (-0.00173839 -0.00173838 824.114) (0.00486607 0.00486612 1215.82)
1550          (0.00192746 0.00192746 2989.96) (0.0022367 0.0022367 2976.3) (0.00206368 0.00206368 2941.64) (-0.000626754 -0.000626754 2884.88) (0.00263966 0.00263966 2808.27) (0.069661 0.069661 2125.93) (0.00293007 0.00293007 1545.07) (-0.00595279 -0.00595279 831.78) (-0.00657329 -0.00657329 576.567) (-0.00169715 -0.00169715 825.015) (0.0045904 0.00459042 1197.48)
1600          (0.00183506 0.00183506 2949.12) (0.00213227 0.00213227 2936.11) (0.00197154 0.00197154 2903.09) (-0.000608348 -0.000608348 2849.03) (0.00251615 0.00251615 2776.07) (0.0664682 0.0664682 2104.24) (0.00305092 0.00305092 1551.39) (-0.00554037 -0.00554037 859.834) (-0.0063736 -0.0063736 597.517) (-0.00166446 -0.00166446 826.095) (0.00433266 0.00433267 1180.12)
1650          (0.00174886 0.00174886 2910.17) (0.00203483 0.00203483 2897.75) (0.00188527 0.00188527 2866.26) (-0.000590407 -0.000590407 2814.72) (0.00240087 0.00240087 2745.18) (0.0634798 0.0634798 2083.32) (0.00314333 0.00314333 1556.78) (-0.0051474 -0.0051474 886.545) (-0.00617251 -0.00617251 618.1) (-0.00163853 -0.00163853 827.365) (0.00409111 0.00409112 1163.68)
1700          (0.00166828 0.00166828 2872.96) (0.00194371 0.00194371 2861.11) (0.00180435 0.00180435 2831.05) (-0.000572963 -0.000572963 2781.86) (0.00229305 0.00229305 2715.51) (0.0606774 0.0606774 2063.16) (0.00321186 0.00321186 1561.33) (-0.00477414 -0.00477414 911.955) (-0.00597083 -0.00597083 638.292) (-0.00161785 -0.00161785 828.831) (0.0038641 0.0038641 1148.13)
1750          (0.00159277 0.00159277 2837.41) (0.00185834 0.00185834 2826.07) (0.00172831 0.00172831 2797.36) (-0.000556046 -0.000556046 2750.37) (0.00219201 0.00219201 2687.02) (0.0580446 0.0580446 2043.72) (0.00326028 0.00326028 1565.15) (-0.00442052 -0.00442052 936.109) (-0.00576929 -0.00576929 658.077) (-0.00160117 -0.00160117 830.497) (0.00365014 0.00365014 1133.4)
1800          (0.00152189 0.00152189 2803.39) (0.00177819 0.00177819 2792.55) (0.00165674 0.00165674 2765.1) (-0.000539669 -0.000539669 2720.18) (0.00209714 0.00209714 2659.63) (0.055567 0.055567 2024.97) (0.00329179 0.00329179 1568.31) (-0.00408623 -0.00408623 959.053) (-0.00556856 -0.00556856 677.438) (-0.00158745 -0.00158745 832.363) (0.00344793 0.00344793 1119.45)
1850          (0.00145523 0.00145523 2770.83) (0.00170283 0.00170283 2760.46) (0.00158926 0.00158926 2734.19) (-0.000523834 -0.000523834 2691.21) (0.00200791 0.00200791 2633.29) (0.0532317 0.0532317 2006.88) (0.00330904 0.00330904 1570.89) (-0.00377078 -0.00377078 980.837) (-0.00536927 -0.00536927 696.362) (-0.00157583 -0.00157583 834.426) (0.00325636 0.00325636 1106.25)
1900          (0.00139245 0.00139245 2739.64) (0.00163183 0.00163183 2729.7) (0.00152556 0.00152556 2704.54) (-0.000508537 -0.000508537 2663.4) (0.00192385 0.00192385 2607.96) (0.0510276 0.0510276 1989.42) (0.00331429 0.00331429 1572.94) (-0.00347355 -0.00347355 1001.51) (-0.00517199 -0.00517199 714.839) (-0.00156561 -0.00156561 836.683) (0.00307446 0.00307446 1093.77)
1950          (0.00133323 0.00133323 2709.74) (0.00156486 0.00156486 2700.21) (0.00146533 0.00146533 2676.11) (-0.000493769 -0.000493769 2636.69) (0.00184454 0.00184454 2583.58) (0.0489447 0.0489447 1972.58) (0.00330947 0.00330947 1574.52) (-0.00319386 -0.00319386 1021.12) (-0.00497721 -0.00497721 732.863) (-0.00155624 -0.00155624 839.127) (0.0029014 0.0029014 1081.96)
2000          (0.00127731 0.00127731 2681.06) (0.0015016 0.0015016 2671.92) (0.00140833 0.00140833 2648.8) (-0.000479516 -0.000479516 2611.01) (0.00176961 0.00176961 2560.11) (0.0469739 0.0469739 1956.32) (0.00329618 0.00329618 1575.69) (-0.00293095 -0.00293095 1039.71) (-0.0047854 -0.0047854 750.427) (-0.00154725 -0.00154725 841.752) (0.00273647 0.00273647 1070.8)
2050          (0.00122443 0.00122443 2653.53) (0.00144177 0.00144177 2644.76) (0.00135432 0.00135432 2622.58) (-0.000465764 -0.000465764 2586.32) (0.00169874 0.00169874 2537.5) (0.0451073 0.0451073 1940.62) (0.00327581 0.00327581 1576.49) (-0.00268405 -0.00268405 1057.34) (-0.00459693 -0.00459693 767.529) (-0.00153829 -0.00153829 844.549) (0.00257905 0.00257905 1060.27)
2100          (0.00117439 0.00117439 2627.09) (0.00138511 0.00138511 2618.66) (0.00130309 0.00130309 2597.38) (-0.000452495 -0.000452495 2562.58) (0.00163162 0.00163162 2515.73) (0.0433376 0.0433376 1925.46) (0.00324954 0.00324954 1576.95) (-0.00245237 -0.00245237 1074.04) (-0.00441216 -0.00441216 784.167) (-0.00152908 -0.00152908 847.51) (0.0024286 0.0024286 1050.33)
2150          (0.00112698 0.00112698 2601.68) (0.0013314 0.0013314 2593.59) (0.00125445 0.00125445 2573.14) (-0.000439694 -0.000439694 2539.72) (0.00156799 0.00156799 2494.73) (0.0416584 0.0416584 1910.81) (0.00321837 0.00321837 1577.1) (-0.00223513 -0.00223513 1089.87) (-0.00423137 -0.00423137 800.341) (-0.0015194 -0.0015194 850.625) (0.00228464 0.00228464 1040.95)
2200          (0.00108203 0.00108203 2577.26) (0.00128044 0.00128044 2569.48) (0.00120822 0.00120822 2549.83) (-0.000427341 -0.000427341 2517.71) (0.00150761 0.00150761 2474.49) (0.0400636 0.0400636 1896.65) (0.00318315 0.00318315 1576.99) (-0.00203154 -0.00203154 1104.87) (-0.0040548 -0.0040548 816.055) (-0.00150909 -0.00150909 853.886) (0.00214676 0.00214676 1032.13)
2250          (0.00103938 0.00103938 2553.77) (0.00123204 0.00123204 2546.29) (0.00116426 0.00116426 2527.39) (-0.000415421 -0.000415421 2496.51) (0.00145027 0.00145027 2454.96) (0.038548 0.038548 1882.97) (0.00314463 0.00314463 1576.64) (-0.00184085 -0.00184085 1119.07) (-0.00388263 -0.00388263 831.312) (-0.00149804 -0.00149804 857.282) (0.00201459 0.00201459 1023.84)
2300          (0.000998885 0.000998885 2531.16) (0.00118605 0.00118605 2523.96) (0.00112242 0.00112242 2505.78) (-0.000403915 -0.000403915 2476.08) (0.00139578 0.00139578 2436.12) (0.0371065 0.0371065 1869.74) (0.00310343 0.00310343 1576.07) (-0.00166232 -0.00166232 1132.53) (-0.00371503 -0.00371503 846.115) (-0.00148618 -0.00148618 860.803) (0.00188782 0.00188782 1016.05)
2350          (-0.00160376 -0.00160376 2509.57) (0.00153697 0.00153697 2502.59) (0.00341369 0.00341369 2485.24) (0.00108555 0.00108555 2456.43) (0.00186367 0.00186367 2417.92) (0.0578976 0.0578976 1856.87) (0.00276204 0.00276204 1575.28) (-0.00132905 -0.00132905 1145.27) (-0.00320794 -0.00320794 860.473) (-0.0013486 -0.0013486 864.442) (0.00154188 0.00154188 1008.75)
2400          (0.00355444 0.00355444 2488.86) (0.00469575 0.00469575 2482.05) (0.00790695 0.00790695 2465.47) (0.00598785 0.00598784 2437.55) (0.0100029 0.0100029 2400.22) (0.285583 0.285583 1844.46) (0.0165955 0.0165955 1574.29) (-0.00763964 -0.00763964 1157.33) (-0.0186688 -0.0186688 874.391) (-0.00792561 -0.00792561 868.187) (0.00815103 0.00815103 1001.92)
2450          (-0.00633397 -0.00633397 2468.88) (-0.00330078 -0.00330078 2462.21) (-0.00220112 -0.00220112 2446.39) (-0.00448902 -0.00448902 2419.31) (-0.00465293 -0.00465293 2383.2) (-0.200696 -0.200696 1832.42) (-0.0103319 -0.0103319 1573.13) (0.00424283 0.00424283 1168.75) (0.0110562 0.0110562 887.876) (0.00488575 0.00488575 872.031) (-0.00477856 -0.00477856 995.537)
2500          (-0.00312688 -0.00312688 2449.63) (1.09765e-05 1.09749e-05 2443.11) (0.00429128 0.00429127 2428.02) (-5.94655e-05 -5.94671e-05 2401.79) (0.000798479 0.000798482 2366.71) (0.0122655 0.0122655 1820.46) (-0.00849189 -0.00849189 1571.82) (0.00215268 0.00215268 1179.56) (0.00808967 0.00808967 900.94) (0.00396251 0.00396251 875.965) (-0.00417986 -0.00417986 989.597)
2550          (-0.00576635 -0.00576635 2431.02) (-0.00370936 -0.00370936 2424.72) (-0.00131913 -0.00131913 2410.04) (-0.00724489 -0.0072449 2384.8) (-0.0112681 -0.0112681 2350.83) (-0.221814 -0.221814 1808.69) (-0.0138096 -0.0138096 1570.39) (0.00423071 0.00423071 1189.79) (0.0136882 0.0136882 913.581) (0.00658662 0.00658662 879.975) (-0.00574788 -0.00574788 984.073)
2600          (-0.00900067 -0.00900067 2413.05) (-0.00490469 -0.00490469 2406.85) (-5.11001e-05 -5.11001e-05 2392.82) (-0.00509952 -0.00509952 2368.46) (-0.00509191 -0.00509191 2335.47) (-0.219933 -0.219933 1798.54) (-0.0107456 -0.0107456 1568.85) (0.00317103 0.00317103 1199.46) (0.0108844 0.0108844 925.813) (0.00541172 0.00541172 884.056) (-0.00413567 -0.00413567 978.947)
2650          (0.00249423 0.00249423 2395.77) (-0.000921546 -0.000921546 2389.69) (0.00124238 0.00124238 2376.26) (-0.00173066 -0.00173066 2352.67) (-0.0014366 -0.0014366 2320.72) (0.0014029 0.0014029 1787.44) (0.000518948 0.000518948 1567.21) (-0.000223514 -0.000223514 1208.61) (-0.000651655 -0.000651655 937.648) (-0.000335495 -0.000335495 888.201) (0.000452766 0.000452766 974.218)
2700          (0.000685297 0.000685297 2380) (0.000440578 0.000440578 2374.41) (-1.20926e-06 -1.20926e-06 2360.23) (0.00476344 0.00476344 2337.71) (-0.0111689 -0.0111689 2306.38) (-0.0469547 -0.0469547 1776.37) (-0.00413076 -0.00413076 1565.47) (0.000414957 0.000414957 1217.27) (0.00392079 0.00392079 949.099) (0.00220355 0.00220355 892.403) (-0.00163168 -0.00163168 969.856)
2750          (0.00108137 0.00108137 2364.49) (0.000563732 0.000563731 2358.98) (0.000133894 0.000133894 2345.04) (0.000478062 0.000478062 2322.9) (0.00430394 0.00430394 2292.27) (-0.0660724 -0.0660724 1766.07) (-0.00512693 -0.00512693 1563.61) (0.000456012 0.000456012 1225.46) (0.00376371 0.00376371 960.168) (0.00221534 0.00221534 896.651) (-0.00144909 -0.00144909 965.858)
2800          (0.00100317 0.00100317 2349.24) (0.000438368 0.000438368 2343.85) (0.000757912 0.000757913 2330.2) (-0.00130171 -0.00130171 2308.59) (-9.70078e-05 -9.70078e-05 2278.76) (-0.045447 -0.045447 1756.39) (-0.00461051 -0.00461051 1561.66) (0.000321004 0.000321004 1233.19) (0.00351615 0.00351615 970.866) (0.00211786 0.00211786 900.94) (-0.00141312 -0.00141312 962.206)
2850          (0.000992252 0.000992252 2334.34) (0.000367715 0.000367715 2329.07) (0.000451326 0.000451325 2315.77) (0.00164381 0.00164381 2294.74) (-0.00159676 -0.00159676 2265.76) (-0.0608914 -0.0608914 1747.04) (-0.00475948 -0.00475948 1559.65) (5.86397e-05 5.86397e-05 1240.51) (0.00339447 0.00339447 981.205) (0.00214764 0.00214764 905.263) (-0.00122181 -0.00122181 958.888)
2900          (0.000894128 0.000894128 2319.81) (0.000490822 0.000490822 2314.69) (2.06165e-05 2.06164e-05 2301.76) (-0.000439074 -0.000439074 2281.32) (0.00300452 0.00300452 2253.2) (-0.0441233 -0.0441233 1738.07) (-0.00458446 -0.00458446 1557.6) (6.46231e-05 6.46231e-05 1247.42) (0.00318312 0.00318312 991.192) (0.00207287 0.00207287 909.614) (-0.00115449 -0.00115449 955.891)
2950          (0.000975305 0.000975305 2305.69) (0.000431553 0.000431553 2300.72) (0.000734993 0.000734993 2288.16) (0.000338701 0.000338701 2268.32) (-0.00307823 -0.00307823 2241.03) (-0.0561784 -0.0561784 1729.34) (-0.00450942 -0.00450942 1555.52) (-0.000151598 -0.000151598 1253.94) (0.00302116 0.00302116 1000.84) (0.00205913 0.00205913 913.986) (-0.00100016 -0.00100016 953.204)
3000          (0.000858994 0.000858994 2291.97) (0.000343822 0.000343822 2287.14) (4.21183e-05 4.21181e-05 2274.96) (0.000657823 0.000657823 2255.71) (0.00354954 0.00354954 2229.26) (-0.0425549 -0.0425549 1720.93) (-0.00443638 -0.00443638 1553.42) (-0.000191749 -0.000191749 1260.11) (0.00285386 0.00285386 1010.16) (0.00200779 0.00200779 918.375) (-0.000910248 -0.000910248 950.814)
3050          (0.000875812 0.000875812 2278.66) (0.000487327 0.000487327 2273.97) (0.000490564 0.000490564 2262.15) (-0.000490265 -0.000490265 2243.48) (-0.0031311 -0.0031311 2217.82) (-0.0518283 -0.0518283 1712.73) (-0.00431372 -0.00431372 1551.29) (-0.000335297 -0.000335297 1265.93) (0.00268113 0.00268113 1019.15) (0.00197213 0.00197213 922.774) (-0.000784698 -0.000784698 948.71)
3100          (0.000857711 0.000857711 2265.74) (0.000300244 0.000300244 2261.19) (0.000306076 0.000306076 2249.72) (0.00118064 0.00118064 2231.61) (0.00327953 0.00327953 2206.74) (-0.0409408 -0.0409408 1704.8) (-0.00426167 -0.00426167 1549.15) (-0.000399472 -0.000399472 1271.43) (0.00253578 0.00253578 1027.84) (0.00193161 0.00193161 927.18) (-0.00068899 -0.00068899 946.881)
3150          (0.000803153 0.000803153 2253.2) (0.00044186 0.00044186 2248.79) (0.000209634 0.000209634 2237.65) (-0.000800663 -0.000800663 2220.09) (-0.00268319 -0.00268319 2195.96) (-0.0478273 -0.0478273 1697.07) (-0.00414029 -0.00414029 1547) (-0.000501713 -0.000501713 1276.62) (0.00237258 0.00237258 1036.22) (0.00188774 0.00188774 931.587) (-0.000581691 -0.000581691 945.316)
3200          (-0.0017835 -0.0017835 2241.05) (-0.000579131 -0.000579131 2236.76) (-0.000207153 -0.000207153 2225.96) (0.000321868 0.000321868 2208.92) (0.000859226 0.000859226 2185.52) (-0.0345128 -0.0345128 1689.55) (-0.00416739 -0.00416739 1544.82) (-0.000645856 -0.000645856 1281.53) (0.00220258 0.00220258 1044.32) (0.00184316 0.00184316 935.992) (-0.000482912 -0.000482912 944.003)
3250          (0.00117395 0.00117395 2229.25) (0.000440124 0.000440125 2225.09) (0.00020375 0.00020375 2214.61) (-8.69992e-05 -8.69991e-05 2198.06) (-7.2223e-05 -7.22232e-05 2175.34) (-0.0412172 -0.0412172 1682.26) (-0.00408745 -0.00408745 1542.64) (-0.000660279 -0.000660279 1286.16) (0.00214239 0.00214239 1052.13) (0.0018442 0.0018442 940.389) (-0.000401973 -0.000401973 942.935)
3300          (0.00107959 0.00107959 2217.81) (0.000236156 0.000236156 2213.77) (-0.000162147 -0.000162147 2203.58) (-0.000628073 -0.000628073 2187.52) (-0.00087372 -0.00087372 2165.45) (-0.0457003 -0.0457003 1675.16) (-0.004751 -0.004751 1540.45) (-0.000880442 -0.000880442 1290.53) (0.00235045 0.00235045 1059.66) (0.00212046 0.00212046 944.777) (-0.000357063 -0.000357063 942.099)
3350          (-0.00180452 -0.00180452 2206.69) (-0.000484431 -0.000484432 2202.77) (-5.07326e-05 -5.07326e-05 2192.88) (0.000437961 0.000437961 2177.28) (0.000924625 0.000924625 2155.88) (-0.026478 -0.026478 1668.23) (-0.00352234 -0.00352234 1538.25) (-0.00077778 -0.00077778 1294.66) (0.00159979 0.00159979 1066.94) (0.00153847 0.00153847 949.152) (-0.000201976 -0.000201976 941.487)
3400          (-0.000618688 -0.000618688 2195.91) (0.000138902 0.000138902 2192.1) (0.000592766 0.000592766 2182.49) (0.0010887 0.0010887 2167.35) (0.00138873 0.00138873 2146.52) (0.00291051 0.00291051 1661.4) (-0.000139152 -0.000139152 1536.04) (-0.000313515 -0.000313515 1298.56) (-0.000332998 -0.000332998 1073.97) (-0.000163094 -0.000163094 953.513) (2.02701e-06 2.02701e-06 941.088)
3450          (0.00301696 0.00301696 2185.43) (0.00119522 0.00119522 2181.73) (0.000692686 0.000692686 2172.39) (2.75167e-05 2.75166e-05 2157.67) (-0.0017673 -0.0017673 2137.44) (0.000118179 0.000118179 1654.85) (3.32103e-05 3.32103e-05 1533.84) (-0.000148048 -0.000148048 1302.24) (-0.000234944 -0.000234944 1080.75) (-0.000140633 -0.000140633 957.851) (-4.41577e-07 -4.41575e-07 940.895)
3500          (0.000822102 0.000822102 2175.23) (0.000132126 0.000132125 2171.63) (-0.000246822 -0.000246822 2162.55) (-0.000607377 -0.000607377 2148.25) (-0.00107763 -0.00107763 2128.57) (-0.0359991 -0.0359991 1648.6) (-0.00400766 -0.00400766 1531.63) (-0.00115143 -0.00115143 1305.7) (0.00147372 0.00147372 1087.28) (0.00167188 0.00167188 962.162) (1.60207e-05 1.60207e-05 940.898)
3550          (-0.00202716 -0.00202716 2165.35) (-5.79122e-05 -5.79122e-05 2161.85) (0.00107019 0.00107019 2153.03) (0.00200804 0.00200804 2139.12) (0.0027008 0.0027008 2119.98) (-0.006083 -0.00608299 1642.27) (-0.000679881 -0.000679881 1529.42) (-0.000493761 -0.000493761 1308.97) (-0.000174016 -0.000174016 1093.6) (3.21827e-05 3.21827e-05 966.457) (-4.53009e-06 -4.53008e-06 941.088)
3600          (0.00248217 0.00248217 2155.76) (0.000904906 0.000904905 2152.36) (0.000396391 0.000396391 2143.77) (0.000194829 0.000194829 2130.22) (0.000626476 0.000626476 2111.6) (-0.00934024 -0.00934024 1636.19) (-0.000570257 -0.000570257 1527.2) (-0.00038866 -0.00038866 1312.05) (-0.000130862 -0.000130862 1099.7) (2.49091e-05 2.49091e-05 970.722) (-2.48927e-06 -2.48927e-06 941.457)
3650          (-0.00231679 -0.00231679 2146.43) (2.87548e-05 2.87548e-05 2143.11) (0.00145658 0.00145658 2134.75) (0.00286407 0.00286407 2121.57) (0.00317578 0.00317578 2103.45) (-0.0106695 -0.0106695 1630.27) (-0.000505283 -0.000505283 1524.99) (-0.000416212 -0.000416212 1314.95) (-0.000198084 -0.000198084 1105.58) (-1.51839e-05 -1.51839e-05 974.958) (-3.11598e-06 -3.11598e-06 941.997)
3700          (0.00423736 0.00423736 2137.38) (0.000937723 0.000937723 2134.15) (-0.000636942 -0.000636942 2125.99) (-0.00133472 -0.00133472 2113.15) (-0.00060469 -0.00060469 2095.51) (-0.00201885 -0.00201885 1624.48) (-0.000305735 -0.000305735 1522.78) (-0.00031839 -0.00031839 1317.68) (-0.000211545 -0.000211545 1111.26) (-5.84113e-05 -5.84113e-05 979.165) (-6.67458e-06 -6.67457e-06 942.701)
3750          (-0.0028472 -0.0028472 2128.57) (-4.79519e-05 -4.79519e-05 2125.42) (0.00152204 0.00152204 2117.48) (0.00233764 0.00233764 2104.96) (0.00199007 0.00199007 2087.76) (-0.0046689 -0.0046689 1618.85) (-0.000375796 -0.000375796 1520.57) (-0.00039853 -0.00039853 1320.25) (-0.000290723 -0.000290723 1116.74) (-0.000111736 -0.000111736 983.34) (-1.41469e-05 -1.41469e-05 943.56)
3800          (0.00411527 0.00411527 2119.99) (0.000880125 0.000880125 2116.92) (-0.000576763 -0.000576763 2109.18) (-0.0011809 -0.0011809 2096.97) (-0.000525563 -0.000525563 2080.21) (-0.00271084 -0.00271084 1613.37) (-0.00025794 -0.00025794 1518.37) (-0.000289738 -0.000289738 1322.66) (-0.000229935 -0.000229935 1122.03) (-0.000103091 -0.000103091 987.482) (-1.70709e-05 -1.70709e-05 944.567)
3850          (-0.00264375 -0.00264375 2111.62) (-5.20329e-05 -5.20331e-05 2108.63) (0.0013724 0.0013724 2101.09) (0.00215188 0.00215188 2089.2) (0.00191204 0.00191204 2072.86) (-0.00422849 -0.00422849 1608.02) (-0.000367864 -0.000367864 1516.18) (-0.000388398 -0.000388398 1324.93) (-0.000287934 -0.000287934 1127.14) (-0.00012199 -0.00012199 991.589) (-1.97583e-05 -1.97583e-05 945.714)
3900          (-0.00375634 -0.00375634 2103.36) (-0.000408839 -0.000408839 2100.44) (0.00120752 0.00120752 2093.09) (0.00207343 0.00207343 2081.46) (0.00199749 0.00199749 2065.63) (-0.0044815 -0.0044815 1602.81) (2.82589e-06 2.8259e-06 1514) (-1.31716e-05 -1.31716e-05 1327.06) (-6.24235e-05 -6.24235e-05 1132.08) (-6.44341e-05 -6.44341e-05 995.662) (7.26057e-06 7.26057e-06 946.998)