# Probe 0 (0.0015 0.0015 0)
# Probe 1 (0.0015 0.0015 0.01)
# Probe 2 (0.0015 0.0015 0.02)
# Probe 3 (0.0015 0.0015 0.03)
# Probe 4 (0.0015 0.0015 0.04)
# Probe 5 (0.0015 0.0015 0.05)
# Probe 6 (0.0015 0.0015 0.06)
# Probe 7 (0.0015 0.0015 0.07)
# Probe 8 (0.0015 0.0015 0.08)
# Probe 9 (0.0015 0.0015 0.09)
# Probe 10 (0.0015 0.0015 0.1)
# Time        0             1             2             3             4             5             6             7             8             9             10           
50            (-3.12144e-11 -4.25978e-11 -5.80179e-11) (-9.76727e-11 -4.51122e-11 -4.00366e-10) (3.40994e-11 -9.30087e-11 2.24116e-11) (5.79967e-11 -3.8794e-11 4.60625e-10) (-2.22696e-11 8.15413e-11 1.15658e-09) (-4.33677e-11 -2.6216e-12 2.6618e-09) (3.35127e-11 2.86646e-12 2.56139e-09) (-6.29565e-12 -7.62037e-12 2.46098e-09) (2.48559e-13 7.93339e-13 2.35288e-09) (1.49873e-12 -7.23721e-12 2.25845e-09) (5.27297e-12 -8.83318e-14 2.27971e-09)
100           (-5.06444e-11 -5.37923e-12 -1.54761e-10) (-1.35398e-10 -5.11955e-11 -6.07182e-10) (-4.80559e-11 4.10541e-11 -1.03864e-09) (-1.37704e-10 -1.91641e-11 -1.05657e-09) (2.00497e-11 6.8625e-11 -6.48012e-10) (-2.23793e-12 1.30115e-10 -4.51323e-11) (-1.38461e-12 9.35251e-13 -1.84416e-10) (7.58322e-12 1.25722e-11 -1.49104e-10) (-2.00387e-11 -1.2634e-11 -1.00745e-10) (3.54089e-11 5.81717e-12 -2.07771e-10) (5.12606e-13 -6.79273e-12 -2.01127e-10)
150           (-1.08252e-10 5.15302e-11 -7.58526e-11) (1.29689e-11 1.75027e-10 -1.26577e-10) (4.655e-11 -9.6977e-11 -2.92513e-10) (-7.98402e-11 -1.05323e-10 7.20711e-10) (4.49496e-11 -8.7573e-12 1.21578e-09) (-4.67969e-11 -7.66355e-11 2.91994e-09) (2.00703e-13 5.24059e-12 2.75079e-09) (1.55095e-11 -2.24628e-11 2.79201e-09) (1.61368e-11 5.74034e-12 2.836e-09) (-9.36227e-12 -2.07644e-11 2.80694e-09) (-2.16888e-11 1.44274e-12 2.82685e-09)
200           (-4.25435e-11 -8.88509e-11 2.27266e-11) (9.65481e-11 -9.09156e-11 -4.94347e-10) (8.04891e-11 -4.26482e-11 -6.21795e-11) (4.14593e-11 8.25161e-11 5.9543e-10) (3.59361e-11 -6.0234e-12 7.7546e-10) (4.10396e-12 5.27046e-13 2.05954e-09) (5.42912e-13 2.51098e-12 1.94894e-09) (1.52456e-11 -9.29981e-13 1.96695e-09) (7.69971e-12 6.25428e-12 1.99719e-09) (-6.97747e-12 1.45759e-11 1.88482e-09) (2.25437e-11 -2.84738e-11 1.85942e-09)
250           (6.50842e-11 4.16939e-11 -2.86105e-13) (9.22769e-11 -9.10798e-11 -2.71487e-10) (-4.60976e-11 -5.20177e-11 -3.54385e-11) (-4.44236e-11 1.59993e-12 3.61199e-10) (5.66837e-12 3.99713e-11 9.932e-10) (-8.773e-11 -6.06548e-11 2.20242e-09) (2.50578e-12 1.56067e-11 2.02723e-09) (8.34901e-12 1.33501e-11 2.04602e-09) (-1.3261e-11 -4.40744e-12 2.07532e-09) (1.07296e-11 7.09831e-12 1.994e-09) (-1.32233e-11 3.45857e-11 2.03421e-09)
300           (7.4214e-11 -1.26747e-10 -1.06141e-10) (-1.12169e-11 3.89551e-11 -3.98301e-10) (-1.28378e-10 1.02518e-11 -8.23527e-10) (2.06494e-10 1.63527e-10 -7.94395e-10) (9.10202e-11 2.35062e-11 -9.17696e-10) (4.49536e-11 -9.05477e-11 -6.48573e-10) (-6.89963e-12 1.05701e-11 -7.54791e-10) (-1.54842e-11 -2.323e-11 -8.57733e-10) (-2.27911e-11 -3.46766e-11 -9.57858e-10) (-5.62742e-12 9.04123e-13 -9.89903e-10) (7.11624e-12 -3.62647e-11 -9.2769e-10)
350           (-1.65623e-10 -1.29937e-10 -3.69323e-11) (2.57685e-11 -5.28327e-11 -3.45234e-10) (2.28754e-10 8.17513e-11 -2.6115e-10) (-1.37569e-10 -4.19837e-12 -2.63346e-10) (-8.21839e-11 5.27715e-11 -3.35102e-10) (-9.96826e-11 -1.73996e-10 4.68572e-10) (-8.17452e-12 -5.39091e-12 3.77166e-10) (-1.56043e-11 6.99135e-12 4.42671e-10) (-1.26544e-11 3.49679e-12 4.78633e-10) (-7.31555e-12 7.86632e-12 4.54422e-10) (-2.0411e-11 2.07408e-11 4.73706e-10)
400           (-3.74142e-11 -4.69155e-11 -5.78198e-11) (-3.65275e-11 3.61426e-11 -5.82098e-10) (-1.16676e-10 -8.19383e-11 2.22366e-11) (-4.73142e-11 -1.78122e-10 5.20003e-10) (1.7599e-10 1.48851e-11 1.00307e-09) (4.30573e-11 6.8031e-11 2.36503e-09) (-8.39241e-12 -1.2404e-12 2.14901e-09) (-2.01441e-11 2.02867e-12 2.21404e-09) (7.93774e-13 -6.04458e-12 2.15371e-09) (-4.20004e-12 1.17969e-12 2.04572e-09) (-8.73437e-14 3.51154e-11 2.05922e-09)
450           (-1.59516e-12 8.67825e-11 -7.52655e-11) (8.39067e-11 -9.31559e-11 -5.36019e-10) (-4.07813e-11 -9.72527e-11 -2.30116e-10) (8.37657e-11 1.4178e-10 6.2245e-10) (1.38126e-10 -4.91784e-11 1.40084e-09) (-7.58284e-12 -9.87262e-12 2.57628e-09) (-2.72669e-11 3.35627e-11 2.36928e-09) (-1.51949e-11 1.39852e-11 2.26974e-09) (-6.52541e-12 3.69897e-11 2.14795e-09) (-7.76374e-12 2.21174e-11 2.08547e-09) (-1.55978e-11 -2.22604e-11 2.0624e-09)
500           (8.07002e-11 3.84336e-11 8.19685e-12) (7.80994e-11 3.73577e-11 -4.57706e-10) (4.12144e-11 1.64684e-12 -1.94424e-13) (-7.6948e-11 8.4588e-11 6.34303e-10) (-6.59182e-11 5.74213e-12 1.26945e-09) (2.97091e-11 -1.50246e-11 2.81738e-09) (-8.74638e-12 -1.13772e-12 2.69579e-09) (-6.61533e-12 2.90048e-11 2.60943e-09) (-5.86113e-12 2.20372e-12 2.54225e-09) (-8.40911e-12 -1.39752e-11 2.48669e-09) (-6.29125e-12 -2.38017e-13 2.50024e-09)
550           (-1.78883e-10 -8.68133e-11 7.24977e-11) (-1.74103e-10 4.55839e-11 -7.49188e-11) (4.02973e-11 3.41713e-11 1.84359e-10) (-3.75075e-11 -4.11182e-12 6.39049e-10) (4.2623e-12 4.69015e-11 6.71662e-10) (9.16063e-12 8.20773e-11 1.51522e-09) (5.93693e-12 6.23768e-12 1.34141e-09) (-8.4674e-12 5.85949e-12 1.29459e-09) (9.21172e-12 1.21694e-11 1.28492e-09) (-1.35769e-11 -1.49203e-11 1.26278e-09) (-2.69954e-11 1.00169e-11 1.28341e-09)
600           (-8.07093e-11 1.24018e-10 -1.36534e-10) (1.05995e-10 -7.21466e-11 -3.60406e-10) (-1.30823e-11 1.73256e-10 -1.44009e-10) (4.20789e-11 -9.16079e-12 7.0577e-10) (8.17424e-11 1.25575e-10 1.28438e-09) (-4.99468e-12 1.20082e-13 2.47644e-09) (1.48445e-11 -1.47994e-11 2.29155e-09) (-6.50785e-12 5.67534e-12 2.3005e-09) (-1.347e-11 -5.45229e-12 2.27411e-09) (1.97956e-11 -1.50085e-12 2.23699e-09) (-7.64358e-12 -9.20943e-13 2.28993e-09)
650           (-5.3104e-11 -8.61043e-11 -1.80192e-11) (1.81051e-10 5.27925e-11 -6.00997e-10) (1.24577e-10 1.06265e-10 -5.5188e-11) (1.61298e-11 3.83753e-11 9.68811e-12) (-8.55695e-11 4.22442e-11 -1.54889e-10) (-1.41861e-10 -9.08422e-11 -1.01138e-10) (8.28296e-13 5.75434e-12 -1.14788e-10) (1.62121e-11 2.13815e-12 -1.82705e-10) (7.0386e-12 1.59226e-12 -3.19769e-10) (-6.70707e-12 5.92197e-12 -3.71239e-10) (-1.20768e-11 2.18518e-11 -4.18577e-10)
700           (1.27413e-10 -8.87271e-11 -2.60213e-11) (-3.50191e-11 4.86549e-11 -7.42144e-10) (1.15255e-11 -1.03682e-11 -7.83834e-10) (-3.69495e-11 9.23936e-11 -3.25551e-10) (-8.10256e-12 -5.18178e-12 4.72028e-10) (2.09127e-10 2.22853e-10 1.4516e-09) (1.09934e-12 -1.06358e-12 1.44065e-09) (-1.45905e-11 5.56209e-12 1.48294e-09) (-1.44294e-11 2.12519e-12 1.43815e-09) (-1.24213e-11 5.17386e-12 1.34712e-09) (7.53024e-13 -4.14893e-12 1.35088e-09)
750           (-1.40809e-10 8.82922e-11 -6.55392e-11) (1.29518e-10 5.16835e-12 -5.62766e-10) (6.50423e-12 -1.68945e-10 -1.28414e-09) (5.29264e-11 -1.03624e-10 -1.32675e-09) (3.66819e-11 -2.54182e-12 -1.16975e-09) (-1.25317e-10 -3.96448e-11 -6.82366e-10) (-5.74804e-12 -2.05758e-11 -7.03208e-10) (2.07972e-11 1.19285e-11 -7.2344e-10) (-9.97786e-13 1.50443e-11 -8.09185e-10) (-5.77087e-12 -8.2306e-12 -8.56784e-10) (-6.26931e-12 1.53683e-11 -8.37543e-10)
800           (3.69255e-11 -4.95046e-11 8.41985e-11) (5.30651e-11 1.29576e-10 -1.75693e-10) (-4.71524e-11 5.72327e-11 -6.32066e-10) (-1.23443e-10 -4.43932e-11 -9.96981e-10) (-2.08827e-10 5.58473e-11 -1.67233e-09) (5.1881e-11 -2.99937e-10 -1.27634e-09) (-1.42718e-11 2.63467e-12 -1.17086e-09) (9.10834e-12 8.42994e-12 -1.14162e-09) (-5.06064e-13 1.34417e-11 -1.05997e-09) (1.36894e-12 7.40025e-12 -1.11412e-09) (4.10346e-12 -7.18793e-12 -1.139e-09)
850           (-5.74608e-11 5.18254e-11 1.32794e-11) (-2.30716e-10 4.84414e-11 -3.04184e-10) (8.49942e-11 -8.56403e-12 -4.96324e-10) (9.54089e-11 -2.49494e-11 3.42989e-10) (5.51278e-12 -5.24146e-11 9.52094e-10) (-7.07805e-12 4.70614e-11 2.47187e-09) (1.47428e-11 1.87691e-11 2.25586e-09) (-2.04728e-11 -1.50505e-12 2.25114e-09) (-8.3882e-12 4.52391e-14 2.24708e-09) (3.35998e-11 -2.20294e-11 2.09041e-09) (2.13166e-11 2.06788e-11 2.10738e-09)
900           (-3.82367e-12 4.82251e-11 -7.80452e-11) (8.873e-11 -9.17294e-11 -6.59696e-10) (-7.85806e-11 2.97194e-11 -7.23864e-10) (1.93458e-10 1.39542e-10 6.21824e-11) (1.30733e-10 9.26198e-11 6.04648e-10) (8.21601e-11 3.16424e-12 1.65576e-09) (8.50395e-12 7.86389e-13 1.48417e-09) (7.1802e-12 -1.70666e-11 1.52832e-09) (-2.56528e-11 6.56545e-12 1.59669e-09) (-2.06193e-11 -1.48871e-11 1.53923e-09) (-1.91564e-11 -1.15827e-12 1.5339e-09)
950           (8.69861e-11 9.39682e-11 -6.68718e-12) (4.81238e-11 9.12616e-11 -1.35272e-10) (4.35693e-11 -5.10142e-11 -6.64728e-10) (3.7938e-12 7.96804e-11 -3.16565e-10) (-4.81081e-11 -4.03664e-11 -1.03854e-10) (2.02077e-12 1.25843e-12 8.61559e-10) (7.19986e-12 6.9808e-12 7.9704e-10) (-7.37892e-12 -2.68561e-11 8.39425e-10) (2.23985e-11 1.4377e-11 9.08701e-10) (-6.29432e-12 -2.31725e-11 8.90273e-10) (-1.3738e-12 2.7461e-11 8.70817e-10)
1000          (-7.83756e-11 2.50982e-12 -1.71975e-10) (-8.94766e-11 -8.57714e-12 -4.30358e-10) (7.9486e-12 3.40892e-11 -5.10828e-10) (9.42867e-12 4.39538e-11 -1.82206e-10) (1.33673e-13 3.0285e-11 2.71716e-10) (5.63996e-11 1.37577e-11 1.17162e-09) (-6.32461e-12 -1.77918e-11 1.04736e-09) (7.76519e-12 -1.46163e-12 9.36986e-10) (-6.38038e-12 -7.10477e-12 8.90463e-10) (-1.0871e-11 -1.41916e-11 8.39044e-10) (-8.74719e-12 2.92998e-11 8.0665e-10)
1050          (1.20597e-10 -4.36087e-12 -1.25945e-10) (1.18826e-11 -4.88057e-11 -5.37882e-10) (2.01026e-12 -3.43492e-11 -7.29911e-10) (1.05188e-11 4.35511e-11 -2.51684e-10) (1.20872e-10 -1.55683e-11 2.54249e-10) (1.69951e-10 -3.32323e-11 1.58608e-09) (-3.73923e-12 1.23129e-12 1.51257e-09) (1.20224e-11 7.00353e-13 1.53283e-09) (3.68575e-11 -6.4912e-12 1.52384e-09) (1.97239e-11 -6.20503e-12 1.51868e-09) (-1.50365e-12 -2.34431e-11 1.5137e-09)
1100          (9.97995e-13 4.68794e-11 -6.4181e-11) (4.60217e-11 -9.63037e-11 -5.1136e-10) (1.11218e-11 6.66436e-11 -2.86791e-10) (8.51084e-12 -4.40501e-11 2.80155e-11) (-4.45174e-11 5.15119e-11 4.5103e-10) (-1.44821e-10 4.59215e-11 1.85036e-09) (-7.87339e-13 1.32593e-11 1.67229e-09) (-1.49374e-11 2.05826e-11 1.62623e-09) (-1.77425e-13 6.45149e-13 1.54729e-09) (1.37921e-11 8.50717e-12 1.49156e-09) (9.16205e-12 -1.99932e-11 1.48286e-09)
1150          (-4.64026e-11 -3.98621e-11 -3.10066e-11) (-3.79835e-11 -5.03668e-11 -5.3275e-10) (-9.2118e-11 -4.93572e-11 -5.13872e-11) (3.45816e-11 5.77597e-11 8.7705e-10) (5.6213e-11 2.18107e-10 1.18198e-09) (6.45884e-12 4.35561e-11 2.74077e-09) (-4.18102e-12 5.54651e-12 2.45216e-09) (5.81294e-12 -7.14177e-12 2.53208e-09) (-7.95408e-12 2.90543e-11 2.55998e-09) (-2.14696e-11 8.26724e-12 2.44691e-09) (-1.41317e-11 -2.22223e-11 2.46614e-09)
1200          (6.39705e-12 -5.7887e-11 6.71694e-11) (-4.52991e-11 1.26363e-10 -1.48883e-10) (-5.2598e-11 -6.88876e-12 1.22595e-10) (-4.13844e-11 1.30705e-10 9.03247e-10) (-5.66677e-11 8.72837e-11 1.82062e-09) (-9.55647e-11 -1.22953e-10 3.3631e-09) (-6.23402e-12 7.91281e-12 3.16818e-09) (-4.44306e-13 1.79687e-11 3.23023e-09) (1.96121e-14 1.39593e-13 3.18821e-09) (1.69765e-11 7.85954e-12 3.14626e-09) (1.98853e-11 1.34624e-11 3.10558e-09)
1250          (5.56879e-13 -7.54405e-11 4.33472e-11) (-4.44872e-11 1.1567e-11 5.93164e-11) (-1.23656e-10 -4.0484e-11 1.97767e-14) (-1.69768e-10 -7.98605e-12 7.99146e-10) (5.36119e-11 -6.08613e-11 1.00565e-09) (3.3972e-11 -7.97508e-11 2.03833e-09) (-1.50433e-12 8.36591e-13 1.85893e-09) (-1.64532e-11 4.93985e-12 1.82639e-09) (-2.61587e-11 -2.9396e-11 1.8077e-09) (6.89649e-13 -1.41417e-11 1.71244e-09) (-7.83163e-13 1.40386e-11 1.72559e-09)
1300          (-3.33259e-11 -4.85686e-11 -4.0564e-12) (-8.95957e-11 -3.36481e-11 -5.79476e-10) (3.88272e-11 -9.86131e-11 -3.35584e-10) (-2.26172e-10 -3.72109e-11 9.52918e-11) (-8.94059e-12 3.47532e-11 9.78751e-10) (-9.87459e-12 -8.07354e-11 1.9313e-09) (-1.40707e-11 -1.99328e-12 1.6314e-09) (-1.10891e-11 1.96149e-12 1.59666e-09) (6.52262e-12 8.14211e-12 1.56429e-09) (2.19881e-11 -4.10991e-11 1.51324e-09) (8.16555e-14 -7.71436e-12 1.50834e-09)
1350          (1.00336e-10 -9.38179e-11 -2.55661e-11) (-7.76042e-11 -1.3034e-10 -2.44266e-10) (-7.13672e-12 -3.46759e-11 -4.26468e-10) (-8.78724e-12 4.92979e-12 1.45234e-10) (-4.20159e-11 4.49637e-11 6.24163e-10) (-1.30473e-10 1.26884e-10 2.32849e-09) (-4.25044e-11 -7.11864e-12 2.15915e-09) (7.37586e-12 5.86406e-12 2.19909e-09) (9.27084e-12 -2.25907e-11 2.14471e-09) (-1.12729e-11 -2.09249e-11 2.05967e-09) (-1.47041e-11 2.1793e-11 1.99158e-09)
1400          (3.80381e-11 -5.89317e-11 -1.97674e-11) (8.53772e-11 4.1893e-11 -1.24743e-10) (-3.0563e-11 1.11004e-11 -1.97723e-10) (7.81647e-11 -4.83511e-11 3.90977e-10) (-4.30059e-11 -1.23222e-11 3.72668e-10) (9.02646e-11 1.22565e-13 1.24328e-09) (-1.48436e-11 6.90833e-12 1.10538e-09) (-2.90223e-11 -1.41151e-11 1.11995e-09) (-2.78444e-11 3.47419e-11 1.18737e-09) (-2.32648e-11 -7.69259e-12 1.08689e-09) (1.57846e-11 -1.45019e-12 1.09573e-09)
1450          (4.23299e-11 8.57937e-12 4.84855e-11) (-7.35759e-12 3.61153e-11 -4.4364e-10) (4.55792e-11 -2.87539e-12 -1.51776e-10) (-3.93527e-11 -4.88223e-11 2.71533e-10) (9.73344e-12 4.57683e-11 7.98919e-10) (-1.1848e-10 -3.16285e-12 2.27604e-09) (-1.26183e-11 1.31547e-12 2.00952e-09) (-1.34029e-12 7.31132e-12 1.92066e-09) (-6.61069e-12 1.57336e-12 1.85459e-09) (-1.36098e-11 -7.91311e-12 1.79569e-09) (1.33835e-11 -5.38425e-12 1.83448e-09)
1500          (5.08785e-11 4.20781e-11 2.24905e-11) (-2.57575e-12 1.61462e-10 -4.46002e-10) (-4.4233e-11 8.42047e-11 -7.11394e-10) (-8.20485e-11 -7.2464e-11 -1.77177e-10) (-5.04285e-11 1.09833e-11 2.96719e-10) (1.39429e-10 4.11746e-11 1.09827e-09) (7.29553e-13 -3.66358e-11 9.70136e-10) (-6.64804e-12 -7.09897e-13 8.54659e-10) (-6.26877e-12 7.65365e-12 7.50169e-10) (-9.31665e-13 -8.49226e-12 6.3297e-10) (8.46116e-12 -1.53671e-11 6.73806e-10)
1550          (7.58845e-11 -1.65528e-10 -1.89646e-11) (9.02436e-11 4.432e-11 -2.2134e-10) (9.7988e-12 2.78572e-12 2.07545e-10) (4.49525e-11 4.84988e-11 6.38164e-10) (-6.31076e-12 3.29924e-12 6.04529e-10) (9.41996e-11 8.54313e-11 1.55655e-09) (-1.35056e-14 -1.62208e-11 1.39974e-09) (-2.36725e-12 2.40401e-11 1.32444e-09) (2.02244e-11 1.55649e-11 1.2601e-09) (-1.31469e-11 -2.66101e-12 1.18269e-09) (1.37813e-11 -1.30041e-11 1.09645e-09)
1600          (1.69842e-10 1.13025e-11 -4.95898e-11) (1.13685e-10 7.32187e-12 -4.67352e-10) (5.07672e-11 -4.74532e-11 -1.17321e-09) (4.38607e-11 -9.76435e-11 -8.03701e-10) (1.83831e-10 8.62635e-11 -4.67064e-10) (-3.80887e-11 1.80683e-13 1.63943e-10) (-1.56299e-11 -7.8702e-12 1.87777e-10) (-1.47195e-11 -3.87412e-11 1.20999e-10) (5.46965e-12 -5.76964e-12 1.0165e-10) (-1.94387e-12 -7.84317e-12 4.81089e-11) (-7.59308e-12 -1.33869e-11 9.04801e-11)
1650          (7.59717e-11 -1.28229e-10 -5.91708e-11) (4.47736e-11 -2.7791e-12 -4.36994e-10) (9.20597e-11 -7.6136e-11 -5.88129e-10) (-1.26222e-10 -4.74662e-11 9.42149e-11) (-7.25186e-11 8.93006e-11 5.99663e-10) (-8.86554e-11 -3.44597e-11 2.12131e-09) (-1.27511e-11 -2.08407e-11 1.95314e-09) (-2.21306e-11 7.25242e-12 2.01569e-09) (-1.30491e-11 2.16507e-11 2.06799e-09) (-1.27638e-11 7.54856e-12 1.96211e-09) (1.46315e-11 -2.69433e-11 1.96619e-09)
1700          (5.16174e-11 -1.25492e-11 9.15495e-12) (-1.69374e-10 -3.5187e-11 -1.9802e-10) (-1.23802e-10 -4.55064e-11 -6.94313e-10) (-4.55022e-11 -1.45637e-11 -1.24289e-09) (1.88245e-10 4.83563e-11 -1.65953e-09) (1.01221e-11 -4.50887e-12 -1.77618e-09) (-2.18837e-11 1.51429e-11 -1.71532e-09) (1.44589e-12 -3.5977e-11 -1.6706e-09) (1.40295e-11 7.14676e-12 -1.63668e-09) (7.22344e-12 1.1814e-11 -1.71314e-09) (-1.35067e-11 2.78237e-11 -1.71691e-09)
1750          (-9.82713e-11 -4.97531e-11 -5.60626e-11) (3.34951e-11 6.70453e-12 -6.99408e-10) (-1.37809e-10 -4.38404e-11 -7.56716e-10) (-4.50548e-11 -5.30192e-11 2.63598e-10) (3.10748e-11 -5.09933e-12 4.57495e-10) (-1.06123e-11 4.78636e-11 1.24628e-09) (2.90039e-11 -2.21208e-11 9.93269e-10) (5.38483e-12 -1.35385e-12 9.7599e-10) (7.52144e-12 1.72224e-11 1.03955e-09) (4.74105e-12 -7.7675e-12 1.00623e-09) (-4.87914e-12 -1.5637e-11 1.04344e-09)
1800          (2.92617e-11 -4.61998e-11 -6.28874e-11) (-8.24531e-12 1.27172e-10 -4.12491e-10) (1.84693e-11 1.29487e-10 -7.46846e-11) (9.33225e-11 8.69886e-11 7.94218e-10) (8.38821e-11 8.42827e-12 1.49578e-09) (1.40805e-10 6.68425e-12 2.95568e-09) (8.09757e-13 2.31366e-11 2.79e-09) (-1.5632e-11 2.24872e-11 2.72849e-09) (1.61015e-11 -7.47057e-12 2.67963e-09) (-1.93358e-11 7.49704e-12 2.57763e-09) (-9.88156e-12 2.00679e-12 2.60784e-09)
1850          (-5.14407e-11 -8.85598e-11 -3.34475e-11) (-4.11192e-11 -4.38277e-12 -3.21255e-10) (-9.2297e-11 1.25465e-11 -8.13881e-10) (-7.20492e-11 4.02447e-11 2.54723e-11) (-4.41933e-11 4.93043e-11 6.48508e-10) (4.51976e-11 -8.99104e-11 2.02092e-09) (-4.85411e-12 -1.38091e-12 1.90838e-09) (-2.14134e-11 8.07037e-13 1.93848e-09) (7.02707e-12 5.52857e-12 1.94323e-09) (8.49074e-12 2.2779e-11 1.87277e-09) (-1.49021e-11 -5.01911e-13 1.86609e-09)
1900          (1.49058e-12 -1.1153e-10 -6.56465e-11) (8.71672e-12 2.03007e-12 -4.16134e-10) (-2.54057e-10 5.11648e-13 -1.04599e-09) (-3.87449e-11 -7.80971e-12 -9.97269e-10) (-1.30095e-10 -7.75874e-11 -1.4489e-09) (-7.97218e-11 1.31394e-10 -1.79183e-09) (-5.16556e-12 -6.38078e-12 -1.76783e-09) (-8.52425e-12 2.44852e-12 -1.82532e-09) (-7.1799e-12 5.70724e-12 -1.84131e-09) (-2.12659e-11 -7.70788e-12 -1.85157e-09) (8.05598e-12 -5.87954e-12 -1.82488e-09)
1950          (4.9306e-11 -3.96493e-12 -1.2112e-10) (8.81447e-11 4.37566e-11 -3.97351e-10) (-1.15873e-11 -5.0564e-11 -1.06574e-09) (-4.03039e-11 2.5951e-11 -1.40244e-09) (-1.54843e-10 -4.32144e-11 -1.31897e-09) (8.76987e-12 -1.39454e-10 -1.87762e-09) (5.03213e-12 -2.20117e-11 -1.68203e-09) (-6.05313e-12 1.50763e-11 -1.74193e-09) (7.2324e-12 -1.62138e-11 -1.78041e-09) (-1.43942e-11 1.54443e-11 -1.81235e-09) (-3.03111e-11 1.32028e-11 -1.85255e-09)
2000          (-8.32128e-11 2.65269e-12 -3.92908e-11) (6.28577e-11 -1.25929e-10 -2.21323e-10) (-8.68108e-11 4.75941e-11 -1.0079e-09) (-2.73825e-12 -1.50198e-11 -1.30079e-09) (-1.83956e-10 -5.54194e-12 -1.51266e-09) (-1.22232e-10 -1.28809e-10 -1.10339e-09) (2.0056e-11 -1.29715e-11 -1.01085e-09) (-7.11913e-12 -2.06475e-11 -9.58164e-10) (1.28768e-11 -8.30588e-12 -9.5822e-10) (9.03581e-12 -1.35817e-11 -1.04762e-09) (5.55128e-13 -5.02384e-12 -1.03933e-09)
2050          (8.60664e-11 3.25872e-13 -1.5306e-10) (1.00136e-10 -3.31019e-12 -3.39891e-11) (-5.93272e-11 1.03182e-10 2.97653e-10) (1.26333e-11 1.31095e-10 8.23668e-10) (-1.32728e-10 1.29906e-10 1.72199e-09) (-9.1595e-12 1.26582e-11 3.0442e-09) (7.96986e-12 5.67186e-12 2.77196e-09) (-5.90437e-12 -3.61395e-11 2.76046e-09) (5.0862e-12 2.20223e-11 2.75004e-09) (1.93613e-12 -6.7836e-12 2.7111e-09) (1.28853e-11 -2.65518e-11 2.67736e-09)
2100          (-1.28467e-10 4.09155e-12 -1.49926e-11) (4.30672e-11 -8.00989e-11 -9.63262e-11) (-4.13586e-11 1.1807e-11 -6.36699e-10) (-1.65255e-10 4.40433e-11 -1.08105e-09) (-4.94104e-11 -5.38404e-11 -1.62531e-09) (-8.53107e-11 2.62943e-12 -1.90418e-09) (-7.60009e-12 -5.72493e-12 -1.79649e-09) (-1.43201e-12 -1.47228e-12 -1.89464e-09) (-7.23875e-12 -2.20357e-11 -1.84499e-09) (6.26578e-14 -7.77542e-12 -1.93992e-09) (-6.87784e-12 6.89603e-12 -1.92629e-09)
2150          (3.24452e-11 3.97694e-11 -7.68329e-12) (1.09638e-11 1.10926e-10 -6.40055e-10) (3.36522e-11 -6.00397e-11 -2.41065e-10) (-9.71463e-11 -8.57117e-11 7.72918e-10) (5.72212e-11 -4.81195e-11 1.28362e-09) (-9.15051e-11 2.396e-12 2.76503e-09) (-1.46562e-11 2.27781e-11 2.3786e-09) (1.06168e-11 1.55176e-11 2.46685e-09) (5.49189e-12 -8.56007e-12 2.36902e-09) (-1.26827e-11 2.13291e-11 2.2585e-09) (-5.71187e-13 6.22291e-12 2.26956e-09)
2200          (8.31106e-11 -1.25032e-10 -4.48672e-11) (2.00231e-12 -2.17134e-12 -7.82122e-10) (-1.59018e-10 4.32364e-11 -8.77749e-10) (-4.20593e-11 3.78505e-11 -3.9583e-10) (-4.09398e-11 2.29342e-11 2.42314e-10) (-1.68753e-11 -1.0004e-11 1.19342e-09) (-8.50122e-12 -1.37938e-11 9.30771e-10) (1.51927e-11 -7.30645e-12 9.85582e-10) (6.59712e-13 -1.27586e-11 1.00022e-09) (2.69171e-11 2.98777e-11 9.09634e-10) (5.84626e-12 2.21497e-11 8.85127e-10)
2250          (-7.90454e-11 1.75964e-10 2.85403e-12) (7.08171e-13 -5.7473e-11 -2.91931e-10) (-4.97926e-11 6.11248e-12 -1.16093e-10) (-1.88826e-11 -9.17417e-12 5.23928e-10) (-1.27699e-10 8.03164e-11 9.64516e-10) (-1.77686e-11 -4.44667e-11 2.50745e-09) (1.4794e-11 6.93799e-13 2.30465e-09) (-1.54051e-12 4.10567e-12 2.26053e-09) (2.79386e-11 -6.99112e-12 2.30172e-09) (1.39967e-11 2.19918e-11 2.2445e-09) (-2.35197e-11 -2.11276e-11 2.24178e-09)
2300          (-4.26789e-11 -5.64133e-11 -6.43536e-11) (4.84113e-11 4.40752e-11 -2.69515e-10) (-6.70768e-12 -1.87264e-10 -9.03463e-10) (1.77627e-10 -9.51733e-11 -1.3798e-09) (-5.77002e-12 5.5485e-11 -1.58932e-09) (-9.95839e-13 4.04633e-11 -1.60714e-09) (2.99536e-12 -1.34051e-11 -1.43931e-09) (-1.97989e-11 1.29449e-11 -1.44961e-09) (7.15757e-12 7.07266e-12 -1.39202e-09) (2.61656e-13 7.45732e-13 -1.43875e-09) (-1.2018e-11 -1.51906e-11 -1.39921e-09)
2350          (-4.50563e-11 -1.4391e-10 -4.32433e-12) (-2.89008e-12 3.62164e-11 -4.64673e-10) (8.07986e-11 -8.72169e-11 -1.70625e-10) (-4.58208e-11 3.94612e-11 2.0742e-10) (-4.55067e-11 3.55653e-11 7.82613e-10) (1.80676e-11 -1.84034e-10 1.76587e-09) (-4.71253e-13 9.98623e-14 1.64758e-09) (-1.53424e-11 7.41145e-12 1.72007e-09) (-6.19716e-12 6.92271e-12 1.72393e-09) (-1.47418e-11 1.63083e-11 1.76953e-09) (-1.29885e-12 1.23907e-11 1.77624e-09)
2400          (-1.82343e-10 7.07e-11 -1.18879e-10) (7.39963e-11 -9.73748e-11 -5.18938e-10) (-8.33221e-11 1.31988e-10 -1.29821e-10) (5.57587e-11 1.20879e-10 3.95529e-10) (-1.3095e-10 2.0822e-12 1.1346e-09) (-3.96319e-11 5.46384e-11 2.44994e-09) (-5.45885e-12 -9.57864e-14 2.19769e-09) (2.17564e-11 7.58671e-13 2.17538e-09) (-1.81743e-12 1.31189e-11 2.0613e-09) (-1.19389e-11 -1.94817e-12 1.97993e-09) (6.30788e-12 7.26253e-12 1.92515e-09)
2450          (3.74468e-11 -4.10699e-11 -2.33126e-11) (3.55425e-11 6.47609e-12 -5.46158e-10) (5.31956e-12 -4.03429e-11 -3.34618e-10) (8.92988e-11 -5.64636e-11 2.86222e-10) (1.01473e-10 -1.93253e-10 4.73199e-10) (-5.26802e-13 3.45568e-11 1.59888e-09) (-1.19691e-11 -5.16851e-12 1.56907e-09) (-7.01951e-12 2.27355e-11 1.61489e-09) (7.73734e-12 2.70067e-11 1.62465e-09) (-2.7706e-11 -1.20504e-12 1.5853e-09) (-1.5331e-11 7.83384e-12 1.5726e-09)
2500          (-3.85484e-11 1.63701e-10 -6.2886e-11) (8.43549e-11 4.45231e-11 -2.05047e-10) (1.32779e-10 6.22424e-12 -9.1496e-10) (-3.69424e-11 -9.92055e-12 -1.51081e-09) (1.85732e-10 1.16866e-10 -1.53179e-09) (4.05915e-11 -9.62411e-11 -1.4301e-09) (3.41241e-11 -6.80796e-12 -1.45103e-09) (-1.39873e-11 1.37084e-11 -1.37594e-09) (1.15579e-13 -1.41132e-11 -1.33168e-09) (-2.32657e-12 8.0783e-13 -1.40535e-09) (2.7795e-11 2.01844e-11 -1.4328e-09)
2550          (4.34274e-11 3.17114e-11 -1.00073e-10) (-1.39271e-10 -4.04919e-12 -3.72156e-10) (1.89086e-10 -8.0392e-12 -1.98252e-10) (-8.90987e-11 -1.26273e-10 4.11653e-10) (-3.26184e-11 1.22949e-10 7.64703e-10) (5.39358e-13 -9.2198e-12 1.99055e-09) (-1.22285e-12 -6.4985e-12 1.86193e-09) (-3.50414e-11 6.778e-13 1.79594e-09) (3.80863e-11 -6.39511e-12 1.74953e-09) (-1.31666e-11 1.45244e-11 1.7009e-09) (-6.16344e-12 -5.57867e-14 1.69334e-09)
2600          (-8.52063e-11 1.03704e-12 1.59842e-11) (7.73297e-11 2.23964e-10 -4.30272e-10) (-5.59298e-13 -2.83592e-11 -8.6102e-10) (-4.23006e-11 -8.61707e-11 -1.2719e-09) (-4.2243e-11 8.29918e-11 -1.64015e-09) (-1.29488e-10 -4.60361e-12 -1.43068e-09) (-1.27317e-12 1.13568e-11 -1.29667e-09) (-1.47823e-11 1.47312e-11 -1.37541e-09) (-1.57212e-11 3.01762e-11 -1.46987e-09) (1.39747e-11 5.29141e-12 -1.60589e-09) (-1.49721e-11 -1.49517e-12 -1.61618e-09)
2650          (-8.13969e-12 -5.21816e-11 4.97051e-11) (8.36136e-12 -2.87287e-11 -2.6741e-10) (-3.94806e-11 -9.00055e-11 2.9136e-10) (-6.90825e-11 -2.72703e-11 9.42453e-10) (-8.04535e-11 -8.56445e-11 1.62113e-09) (1.06318e-11 -8.76008e-11 3.39342e-09) (6.93453e-12 1.27884e-11 3.01047e-09) (-1.48476e-11 1.13424e-11 2.96744e-09) (-2.13861e-11 -1.39191e-11 2.9676e-09) (5.65449e-12 -1.61512e-11 2.86808e-09) (1.27328e-11 7.03386e-12 2.86147e-09)
2700          (1.00731e-10 -1.38929e-10 -1.30459e-10) (3.67955e-11 -7.1622e-12 -8.11837e-10) (-8.64283e-11 1.45196e-12 -2.62381e-10) (8.40605e-11 -7.16151e-12 5.77486e-10) (9.38058e-11 -1.08973e-10 1.37858e-09) (5.61413e-11 1.28369e-10 3.07152e-09) (-1.40007e-11 -1.72977e-11 2.79727e-09) (8.59636e-12 -2.00987e-13 2.67474e-09) (-5.65472e-12 7.95811e-12 2.55272e-09) (-1.41501e-11 5.97187e-12 2.44701e-09) (-8.44911e-13 -1.26415e-11 2.43932e-09)
2750          (4.64706e-11 3.83631e-11 -2.36303e-11) (-6.06002e-12 4.81057e-11 -1.70965e-10) (-3.47445e-11 -5.00319e-11 -7.0268e-10) (4.72832e-13 -2.28832e-12 -9.0246e-10) (-4.08286e-11 8.19951e-11 -6.04329e-10) (-9.30643e-11 3.62676e-11 1.87379e-10) (7.64118e-13 -2.04637e-11 1.47697e-10) (9.31836e-12 9.07158e-12 1.9075e-10) (6.63234e-12 2.06738e-11 2.2647e-10) (6.51331e-12 8.06606e-12 2.03087e-10) (1.71597e-11 -1.58458e-11 1.65944e-10)
2800          (-1.25598e-10 7.88018e-11 -1.26783e-10) (-2.47552e-13 -3.948e-11 -2.30392e-10) (-1.23867e-10 -1.32903e-10 -2.61119e-10) (-3.81414e-11 5.47531e-11 6.10695e-10) (9.15643e-11 4.51924e-12 7.70403e-10) (4.3554e-11 -6.63787e-12 2.24798e-09) (-1.84855e-13 -1.56291e-11 2.11675e-09) (-1.51977e-13 1.4747e-11 2.17781e-09) (1.81818e-11 9.36058e-12 2.22993e-09) (1.62555e-11 7.23721e-14 2.1257e-09) (-6.44476e-12 7.0067e-12 2.12479e-09)
2850          (5.70843e-11 1.76161e-10 -9.62509e-11) (1.05772e-10 1.9214e-11 -1.80243e-10) (8.12944e-11 -5.71526e-11 -1.14109e-10) (1.63775e-10 3.51902e-11 1.73021e-10) (3.11201e-11 8.34217e-11 6.96654e-10) (-9.37797e-11 -8.71147e-11 2.04523e-09) (2.11795e-11 7.64298e-12 1.91973e-09) (-1.31749e-11 8.68263e-12 1.96381e-09) (-3.05593e-11 2.17174e-11 2.00575e-09) (8.54182e-12 -1.11393e-12 1.9355e-09) (7.47172e-12 -1.56387e-11 1.93919e-09)
2900          (-2.56665e-11 -2.13407e-10 4.6324e-11) (4.42304e-11 1.68046e-10 -3.47487e-10) (4.13186e-11 -2.25931e-10 -6.31027e-10) (-3.21862e-11 2.90819e-11 -1.25582e-09) (1.87652e-10 1.42761e-10 -1.55321e-09) (8.09068e-11 7.05699e-12 -1.16021e-09) (2.479e-11 -4.29e-12 -1.10216e-09) (-1.47631e-11 4.88786e-13 -1.04953e-09) (1.34622e-11 -1.65011e-11 -1.10942e-09) (1.3236e-11 8.56598e-12 -1.17206e-09) (2.13912e-11 -5.77943e-12 -1.17989e-09)
2950          (-3.46215e-11 -4.21031e-11 -4.54095e-11) (-1.79053e-10 2.98413e-12 -4.48986e-10) (-1.06322e-11 1.42266e-10 -8.07713e-11) (-1.26341e-10 -8.90423e-11 2.36028e-10) (4.6293e-11 4.767e-11 5.81755e-10) (-8.46408e-11 1.42169e-10 1.55328e-09) (-1.58136e-11 -8.74713e-12 1.38887e-09) (-2.61056e-11 3.91806e-13 1.42684e-09) (5.52805e-12 6.06923e-12 1.4685e-09) (1.3189e-11 -1.29526e-11 1.38141e-09) (-1.70667e-11 2.94374e-11 1.3888e-09)
3000          (1.93281e-10 1.28485e-10 -3.83468e-11) (2.01072e-12 -4.16601e-11 -8.52345e-10) (-3.50299e-11 -1.23375e-11 -4.4456e-10) (-8.40571e-12 -5.30022e-11 2.66004e-10) (-4.99227e-11 4.0829e-11 8.83901e-10) (-4.23886e-12 -1.13202e-10 2.17714e-09) (6.58732e-12 1.32319e-11 2.00791e-09) (-7.66048e-13 7.26274e-13 2.00488e-09) (7.28718e-12 1.35856e-11 2.02695e-09) (-4.13632e-13 -6.54827e-12 1.98747e-09) (3.765e-12 2.25997e-11 1.95966e-09)
3050          (-2.68007e-11 -8.96575e-11 -1.13845e-11) (9.64124e-11 -3.87731e-11 -2.54269e-10) (-4.47999e-11 -4.97359e-11 2.40616e-11) (4.33564e-12 -2.02488e-10 5.6258e-10) (6.94997e-12 -8.98363e-12 1.42486e-09) (-1.52029e-11 -1.34438e-10 2.88621e-09) (1.48457e-12 6.41942e-12 2.79242e-09) (-2.83519e-11 -2.11676e-11 2.87449e-09) (-1.73751e-12 -2.02755e-11 2.83118e-09) (7.70214e-12 1.66033e-12 2.74555e-09) (-1.159e-12 -5.01129e-12 2.75164e-09)
3100          (-9.04512e-11 -5.01322e-11 -1.75679e-11) (5.8736e-11 -2.15445e-12 -2.7664e-10) (4.54904e-11 4.66485e-11 -8.72294e-10) (1.0641e-11 -8.28699e-12 -1.06884e-09) (-9.71596e-12 -1.45441e-10 -1.76497e-09) (1.05211e-10 -5.48973e-12 -1.28496e-09) (-7.74564e-12 6.58605e-13 -1.22006e-09) (1.55691e-11 -1.38043e-12 -1.29532e-09) (-3.86678e-12 5.04582e-12 -1.4243e-09) (-2.77362e-11 2.44541e-13 -1.54189e-09) (1.53389e-11 5.46021e-12 -1.56426e-09)
3150          (9.35495e-11 -3.9771e-11 7.81749e-11) (-5.64788e-11 7.74407e-11 -1.28406e-10) (5.62282e-11 -2.18354e-10 8.87631e-11) (-1.39696e-11 7.07273e-11 5.94603e-10) (-6.25475e-12 -1.76996e-10 1.03781e-09) (-1.39307e-10 2.2395e-10 2.65298e-09) (1.42808e-11 -5.82809e-12 2.39471e-09) (-6.3885e-12 5.45854e-13 2.43829e-09) (-6.65602e-12 -1.4867e-11 2.47252e-09) (-9.21801e-12 -8.493e-12 2.37222e-09) (9.27693e-12 -6.67355e-13 2.33016e-09)
3200          (-8.48515e-11 2.92852e-11 -9.10598e-11) (-8.1083e-11 1.26413e-10 -4.82807e-10) (9.02403e-11 -5.89975e-11 -6.20069e-10) (-4.67136e-11 4.64321e-11 -8.0307e-11) (-1.40955e-11 4.18978e-11 4.19465e-10) (4.07381e-11 1.25102e-10 1.43409e-09) (-7.05999e-12 -7.69792e-12 1.22289e-09) (1.42295e-11 -1.78036e-11 1.11982e-09) (-1.90601e-12 -2.37224e-13 1.06033e-09) (8.45929e-12 1.48566e-11 9.20366e-10) (1.4723e-11 -5.85531e-12 9.49808e-10)
3250          (6.23956e-12 -3.76615e-13 -2.12677e-11) (1.33353e-10 1.27549e-10 -4.4643e-10) (3.28025e-11 -5.06288e-11 -5.454e-10) (8.26908e-11 -1.07515e-14 1.48749e-10) (2.09103e-12 4.68692e-11 8.96881e-10) (1.02819e-11 3.90479e-11 2.05294e-09) (-6.927e-12 4.8022e-15 1.87546e-09) (-4.93418e-13 8.26708e-12 1.7763e-09) (1.35876e-11 1.29049e-11 1.71287e-09) (1.25203e-11 6.32747e-12 1.63433e-09) (4.89426e-12 5.11719e-12 1.69901e-09)
3300          (-8.3088e-12 1.36284e-10 -3.1139e-12) (5.74474e-12 -1.16839e-10 -4.85606e-10) (4.96524e-11 -1.79084e-10 -8.04334e-10) (-8.98768e-11 -4.85904e-11 -3.23441e-10) (2.36309e-11 -1.19988e-10 1.27052e-10) (-3.7593e-11 5.39765e-11 1.24292e-09) (7.29953e-13 -1.55346e-11 1.10865e-09) (-5.19314e-12 8.04603e-12 9.52164e-10) (8.33877e-12 7.20115e-12 8.98102e-10) (5.30836e-13 7.76871e-12 8.70505e-10) (1.18493e-12 -2.1446e-11 9.11744e-10)