# Probe 0 (0.0015 0.0015 0)
# Probe 1 (0.0015 0.0015 0.002)
# Probe 2 (0.0015 0.0015 0.004)
# Probe 3 (0.0015 0.0015 0.006)
# Probe 4 (0.0015 0.0015 0.008)
# Probe 5 (0.0015 0.0015 0.01)
# Probe 6 (0.0015 0.0015 0.012)
# Probe 7 (0.0015 0.0015 0.014)
# Probe 8 (0.0015 0.0015 0.016)
# Probe 9 (0.0015 0.0015 0.018)
# Probe 10 (0.0015 0.0015 0.02)
# Time        0             1             2             3             4             5             6             7             8             9             10           
50            0.000622429   0.000622429   0.000533239   0.000891024   0.000573861   0.000798602   0.000450527   0.000732384   0.000579435   0.000484014   0.000478312  
100           0.000622429   0.000622429   0.000533239   0.000891024   0.000573861   0.000798602   0.000450527   0.000732384   0.000579435   0.000484014   0.000478312  
150           0.000622429   0.000622429   0.000533239   0.000891024   0.000573861   0.000798602   0.000450527   0.000732384   0.000579435   0.000484014   0.000478312  
200           0.000622429   0.000622429   0.000533239   0.000891024   0.000573861   0.000798602   0.000450527   0.000732384   0.000579435   0.000484014   0.000478312  
250           0.000622429   0.000622429   0.000533239   0.000891024   0.000573861   0.000798602   0.000450527   0.000732384   0.000579435   0.000484014   0.000478312  
300           0.000622429   0.000622429   0.000533239   0.000891024   0.000573861   0.000798602   0.000450527   0.000732384   0.000579435   0.000484014   0.000478312  
350           0.000622429   0.000622429   0.000533239   0.000891024   0.000573861   0.000798602   0.000450527   0.000732384   0.000579435   0.000484014   0.000478312  
400           0.000622429   0.000622429   0.000533239   0.000891024   0.000573861   0.000798602   0.000450527   0.000732384   0.000579435   0.000484014   0.000478312  
450           0.000622429   0.000622429   0.000533239   0.000891024   0.000573861   0.000798602   0.000450527   0.000732384   0.000579435   0.000484014   0.000478312  
500           0.000622429   0.000622429   0.000533239   0.000891024   0.000573861   0.000798602   0.000450527   0.000732384   0.000579435   0.000484014   0.000478312  
550           0.000622429   0.000622429   0.000533239   0.000891024   0.000573861   0.000798602   0.000450527   0.000732384   0.000579435   0.000484014   0.000478312  
600           0.000622429   0.000622429   0.000533239   0.000891024   0.000573861   0.000798602   0.000450527   0.000732384   0.000579435   0.000484014   0.000478312  
650           0.000622429   0.000622429   0.000533239   0.000891024   0.000573861   0.000798602   0.000450527   0.000732384   0.000579435   0.000484014   0.000478312  
700           0.000622429   0.000622429   0.000533239   0.000891024   0.000573861   0.000798602   0.000450527   0.000732384   0.000579435   0.000484014   0.000478312  
750           0.000622429   0.000622429   0.000533239   0.000891024   0.000573861   0.000798602   0.000450527   0.000732384   0.000579435   0.000484014   0.000478312  
800           0.000622429   0.000622429   0.000533239   0.000891024   0.000573861   0.000798602   0.000450527   0.000732384   0.000579435   0.000484014   0.000478312  
850           0.000622429   0.000622429   0.000533239   0.000891024   0.000573861   0.000798602   0.000450527   0.000732384   0.000579435   0.000484014   0.000478312  
900           0.000622429   0.000622429   0.000533239   0.000891024   0.000573861   0.000798602   0.000450527   0.000732384   0.000579435   0.000484014   0.000478312  
950           0.000622429   0.000622429   0.000533239   0.000891024   0.000573861   0.000798602   0.000450527   0.000732384   0.000579435   0.000484014   0.000478312  
1000          0.000622429   0.000622429   0.000533239   0.000891024   0.000573861   0.000798602   0.000450527   0.000732384   0.000579435   0.000484014   0.000478312  
1050          0.000622429   0.000622429   0.000533239   0.000891024   0.000573861   0.000798602   0.000450527   0.000732384   0.000579435   0.000484014   0.000478312  
1100          0.000622429   0.000622429   0.000533239   0.000891024   0.000573861   0.000798602   0.000450527   0.000732384   0.000579435   0.000484014   0.000478312  
1150          0.000622429   0.000622429   0.000533239   0.000891024   0.000573861   0.000798602   0.000450527   0.000732384   0.000579435   0.000484014   0.000478312  
1200          0.000622429   0.000622429   0.000533239   0.000891024   0.000573861   0.000798602   0.000450527   0.000732384   0.000579435   0.000484014   0.000478312  
1250          0.000622429   0.000622429   0.000533239   0.000891024   0.000573861   0.000798602   0.000450527   0.000732384   0.000579435   0.000484014   0.000478312  
1300          0.000622429   0.000622429   0.000533239   0.000891024   0.000573861   0.000798602   0.000450527   0.000732384   0.000579435   0.000484014   0.000478312  
1350          0.000622429   0.000622429   0.000533239   0.000891024   0.000573861   0.000798602   0.000450527   0.000732384   0.000579435   0.000484014   0.000478312  
1400          0.000622429   0.000622429   0.000533239   0.000891024   0.000573861   0.000798602   0.000450527   0.000732384   0.000579435   0.000484014   0.000478312  
1450          0.000622429   0.000622429   0.000533239   0.000891024   0.000573861   0.000798602   0.000450527   0.000732384   0.000579435   0.000484014   0.000478312  
1500          0.000622429   0.000622429   0.000533239   0.000891024   0.000573861   0.000798602   0.000450527   0.000732384   0.000579435   0.000484014   0.000478312  
1550          0.000622429   0.000622429   0.000533239   0.000891024   0.000573861   0.000798602   0.000450527   0.000732384   0.000579435   0.000484014   0.000478312  
1600          0.000622429   0.000622429   0.000533239   0.000891024   0.000573861   0.000798602   0.000450527   0.000732384   0.000579435   0.000484014   0.000478312  
1650          0.000622429   0.000622429   0.000533239   0.000891024   0.000573861   0.000798602   0.000450527   0.000732384   0.000579435   0.000484014   0.000478312  
1700          0.000622429   0.000622429   0.000533239   0.000891024   0.000573861   0.000798602   0.000450527   0.000732384   0.000579435   0.000484014   0.000478312  
1750          0.000622429   0.000622429   0.000533239   0.000891024   0.000573861   0.000798602   0.000450527   0.000732384   0.000579435   0.000484014   0.000478312  
1800          0.000622429   0.000622429   0.000533239   0.000891024   0.000573861   0.000798602   0.000450527   0.000732384   0.000579435   0.000484014   0.000478312  
1850          0.000622429   0.000622429   0.000533239   0.000891024   0.000573861   0.000798602   0.000450527   0.000732384   0.000579435   0.000484014   0.000478312  
1900          0.000622429   0.000622429   0.000533239   0.000891024   0.000573861   0.000798602   0.000450527   0.000732384   0.000579435   0.000484014   0.000478312  
1950          0.000622429   0.000622429   0.000533239   0.000891024   0.000573861   0.000798602   0.000450527   0.000732384   0.000579435   0.000484014   0.000478312  
2000          0.000622429   0.000622429   0.000533239   0.000891024   0.000573861   0.000798602   0.000450527   0.000732384   0.000579435   0.000484014   0.000478312  
2050          0.000622429   0.000622429   0.000533239   0.000891024   0.000573861   0.000798602   0.000450527   0.000732384   0.000579435   0.000484014   0.000478312  
2100          0.000622429   0.000622429   0.000533239   0.000891024   0.000573861   0.000798602   0.000450527   0.000732384   0.000579435   0.000484014   0.000478312  
2150          0.000622429   0.000622429   0.000533239   0.000891024   0.000573861   0.000798602   0.000450527   0.000732384   0.000579435   0.000484014   0.000478312  
2200          0.000622429   0.000622429   0.000533239   0.000891024   0.000573861   0.000798602   0.000450527   0.000732384   0.000579435   0.000484014   0.000478312  
2250          0.000622429   0.000622429   0.000533239   0.000891024   0.000573861   0.000798602   0.000450527   0.000732384   0.000579435   0.000484014   0.000478312  
2300          0.000622429   0.000622429   0.000533239   0.000891024   0.000573861   0.000798602   0.000450527   0.000732384   0.000579435   0.000484014   0.000478312  
2350          0.000622429   0.000622429   0.000533239   0.000891024   0.000573861   0.000798602   0.000450527   0.000732384   0.000579435   0.000484014   0.000478312  
2400          0.000622429   0.000622429   0.000533239   0.000891024   0.000573861   0.000798602   0.000450527   0.000732384   0.000579435   0.000484014   0.000478312  
2450          0.000622429   0.000622429   0.000533239   0.000891024   0.000573861   0.000798602   0.000450527   0.000732384   0.000579435   0.000484014   0.000478312  
2500          0.000622429   0.000622429   0.000533239   0.000891024   0.000573861   0.000798602   0.000450527   0.000732384   0.000579435   0.000484014   0.000478312  
2550          0.000622429   0.000622429   0.000533239   0.000891024   0.000573861   0.000798602   0.000450527   0.000732384   0.000579435   0.000484014   0.000478312  
2600          0.000622429   0.000622429   0.000533239   0.000891024   0.000573861   0.000798602   0.000450527   0.000732384   0.000579435   0.000484014   0.000478312  
2650          0.000622429   0.000622429   0.000533239   0.000891024   0.000573861   0.000798602   0.000450527   0.000732384   0.000579435   0.000484014   0.000478312  
2700          0.000622429   0.000622429   0.000533239   0.000891024   0.000573861   0.000798602   0.000450527   0.000732384   0.000579435   0.000484014   0.000478312  
2750          0.000622429   0.000622429   0.000533239   0.000891024   0.000573861   0.000798602   0.000450527   0.000732384   0.000579435   0.000484014   0.000478312  
2800          0.000622429   0.000622429   0.000533239   0.000891024   0.000573861   0.000798602   0.000450527   0.000732384   0.000579435   0.000484014   0.000478312  
2850          0.000622429   0.000622429   0.000533239   0.000891024   0.000573861   0.000798602   0.000450527   0.000732384   0.000579435   0.000484014   0.000478312  
2900          0.000622429   0.000622429   0.000533239   0.000891024   0.000573861   0.000798602   0.000450527   0.000732384   0.000579435   0.000484014   0.000478312  
2950          0.000622429   0.000622429   0.000533239   0.000891024   0.000573861   0.000798602   0.000450527   0.000732384   0.000579435   0.000484014   0.000478312  
3000          0.000622429   0.000622429   0.000533239   0.000891024   0.000573861   0.000798602   0.000450527   0.000732384   0.000579435   0.000484014   0.000478312  
3050          0.000622429   0.000622429   0.000533239   0.000891024   0.000573861   0.000798602   0.000450527   0.000732384   0.000579435   0.000484014   0.000478312  
3100          0.000622429   0.000622429   0.000533239   0.000891024   0.000573861   0.000798602   0.000450527   0.000732384   0.000579435   0.000484014   0.000478312  
3150          0.000622429   0.000622429   0.000533239   0.000891024   0.000573861   0.000798602   0.000450527   0.000732384   0.000579435   0.000484014   0.000478312  
3200          0.000622429   0.000622429   0.000533239   0.000891024   0.000573861   0.000798602   0.000450527   0.000732384   0.000579435   0.000484014   0.000478312  
3250          0.000622429   0.000622429   0.000533239   0.000891024   0.000573861   0.000798602   0.000450527   0.000732384   0.000579435   0.000484014   0.000478312  
3300          0.000622429   0.000622429   0.000533239   0.000891024   0.000573861   0.000798602   0.000450527   0.000732384   0.000579435   0.000484014   0.000478312  
3350          0.000622429   0.000622429   0.000533239   0.000891024   0.000573861   0.000798602   0.000450527   0.000732384   0.000579435   0.000484014   0.000478312  
3400          0.000622429   0.000622429   0.000533239   0.000891024   0.000573861   0.000798602   0.000450527   0.000732384   0.000579435   0.000484014   0.000478312  
3450          0.000622429   0.000622429   0.000533239   0.000891024   0.000573861   0.000798602   0.000450527   0.000732384   0.000579435   0.000484014   0.000478312  
3500          0.000622429   0.000622429   0.000533239   0.000891024   0.000573861   0.000798602   0.000450527   0.000732384   0.000579435   0.000484014   0.000478312  
3550          0.000622429   0.000622429   0.000533239   0.000891024   0.000573861   0.000798602   0.000450527   0.000732384   0.000579435   0.000484014   0.000478312  
3600          0.000622429   0.000622429   0.000533239   0.000891024   0.000573861   0.000798602   0.000450527   0.000732384   0.000579435   0.000484014   0.000478312  
3650          0.000622429   0.000622429   0.000533239   0.000891024   0.000573861   0.000798602   0.000450527   0.000732384   0.000579435   0.000484014   0.000478312  
3700          0.000622429   0.000622429   0.000533239   0.000891024   0.000573861   0.000798602   0.000450527   0.000732384   0.000579435   0.000484014   0.000478312  
3750          0.000622429   0.000622429   0.000533239   0.000891024   0.000573861   0.000798602   0.000450527   0.000732384   0.000579435   0.000484014   0.000478312  
3800          0.000622429   0.000622429   0.000533239   0.000891024   0.000573861   0.000798602   0.000450527   0.000732384   0.000579435   0.000484014   0.000478312  
3850          0.000622429   0.000622429   0.000533239   0.000891024   0.000573861   0.000798602   0.000450527   0.000732384   0.000579435   0.000484014   0.000478312  
3900          0.000622429   0.000622429   0.000533239   0.000891024   0.000573861   0.000798602   0.000450527   0.000732384   0.000579435   0.000484014   0.000478312  
3950          0.000622429   0.000622429   0.000533239   0.000891024   0.000573861   0.000798602   0.000450527   0.000732384   0.000579435   0.000484014   0.000478312  
4000          0.000622429   0.000622429   0.000533239   0.000891024   0.000573861   0.000798602   0.000450527   0.000732384   0.000579435   0.000484014   0.000478312  
4050          0.000622429   0.000622429   0.000533239   0.000891024   0.000573861   0.000798602   0.000450527   0.000732384   0.000579435   0.000484014   0.000478312  
4100          0.000622429   0.000622429   0.000533239   0.000891024   0.000573861   0.000798602   0.000450527   0.000732384   0.000579435   0.000484014   0.000478312  
4150          0.000622429   0.000622429   0.000533239   0.000891024   0.000573861   0.000798602   0.000450527   0.000732384   0.000579435   0.000484014   0.000478312  
4200          0.000622429   0.000622429   0.000533239   0.000891024   0.000573861   0.000798602   0.000450527   0.000732384   0.000579435   0.000484014   0.000478312  
4250          0.000622429   0.000622429   0.000533239   0.000891024   0.000573861   0.000798602   0.000450527   0.000732384   0.000579435   0.000484014   0.000478312  
4300          0.000622429   0.000622429   0.000533239   0.000891024   0.000573861   0.000798602   0.000450527   0.000732384   0.000579435   0.000484014   0.000478312  
4350          0.000622429   0.000622429   0.000533239   0.000891024   0.000573861   0.000798602   0.000450527   0.000732384   0.000579435   0.000484014   0.000478312  
4400          0.000622429   0.000622429   0.000533239   0.000891024   0.000573861   0.000798602   0.000450527   0.000732384   0.000579435   0.000484014   0.000478312  
4450          0.000622429   0.000622429   0.000533239   0.000891024   0.000573861   0.000798602   0.000450527   0.000732384   0.000579435   0.000484014   0.000478312  
4500          0.000622429   0.000622429   0.000533239   0.000891024   0.000573861   0.000798602   0.000450527   0.000732384   0.000579435   0.000484014   0.000478312  
4550          0.000622429   0.000622429   0.000533239   0.000891024   0.000573861   0.000798602   0.000450527   0.000732384   0.000579435   0.000484014   0.000478312  
4600          0.000622429   0.000622429   0.000533239   0.000891024   0.000573861   0.000798602   0.000450527   0.000732384   0.000579435   0.000484014   0.000478312  
4650          0.000622429   0.000622429   0.000533239   0.000891024   0.000573861   0.000798602   0.000450527   0.000732384   0.000579435   0.000484014   0.000478312  
4700          0.000622429   0.000622429   0.000533239   0.000891024   0.000573861   0.000798602   0.000450527   0.000732384   0.000579435   0.000484014   0.000478312  
4750          0.000622429   0.000622429   0.000533239   0.000891024   0.000573861   0.000798602   0.000450527   0.000732384   0.000579435   0.000484014   0.000478312  
4800          0.000622429   0.000622429   0.000533239   0.000891024   0.000573861   0.000798602   0.000450527   0.000732384   0.000579435   0.000484014   0.000478312  
4850          0.000622429   0.000622429   0.000533239   0.000891024   0.000573861   0.000798602   0.000450527   0.000732384   0.000579435   0.000484014   0.000478312  
4900          0.000622429   0.000622429   0.000533239   0.000891024   0.000573861   0.000798602   0.000450527   0.000732384   0.000579435   0.000484014   0.000478312  
4950          0.000622429   0.000622429   0.000533239   0.000891024   0.000573861   0.000798602   0.000450527   0.000732384   0.000579435   0.000484014   0.000478312  
5000          0.000622429   0.000622429   0.000533239   0.000891024   0.000573861   0.000798602   0.000450527   0.000732384   0.000579435   0.000484014   0.000478312  
