# Probe 0 (0.0015 0.0015 0)
# Probe 1 (0.0015 0.0015 0.002)
# Probe 2 (0.0015 0.0015 0.004)
# Probe 3 (0.0015 0.0015 0.006)
# Probe 4 (0.0015 0.0015 0.008)
# Probe 5 (0.0015 0.0015 0.01)
# Probe 6 (0.0015 0.0015 0.012)
# Probe 7 (0.0015 0.0015 0.014)
# Probe 8 (0.0015 0.0015 0.016)
# Probe 9 (0.0015 0.0015 0.018)
# Probe 10 (0.0015 0.0015 0.02)
# Time        0             1             2             3             4             5             6             7             8             9             10           
50            126017        126017        126017        68587.5       68587.5       54637.9       54637.9       49993.2       49993.2       40375         40375        
100           151754        151754        151754        88086.9       88086.9       60389.7       60389.7       48671.3       48671.3       35295.6       35295.6      
150           164831        164831        164831        104268        104268        68163.1       68163.1       49222.4       49222.4       32894.6       32894.6      
200           172556        172556        172556        116015        116015        75975.8       75975.8       51173.3       51173.3       31984.6       31984.6      
250           177669        177669        177669        124499        124499        82939.4       82939.4       53950.5       53950.5       32020.1       32020.1      
300           181279        181279        181279        130797        130797        88848.8       88848.8       57069.2       57069.2       32655         32655        
350           183946        183946        183946        135617        135617        93788.8       93788.8       60205.3       60205.3       33643.7       33643.7      
400           185988        185988        185988        139403        139403        97916.7       97916.7       63174.4       63174.4       34809         34809        
450           187596        187596        187596        142443        142443        101380        101380        65886.6       65886.6       36027.7       36027.7      
500           188889        188889        188889        144926        144926        104300        104300        68309.5       68309.5       37216.4       37216.4      
550           189948        189948        189948        146981        146981        106771        106771        70442.1       70442.1       38327.5       38327.5      
600           190826        190826        190826        148696        148696        108866        108866        72298.9       72298.9       39334.3       39334.3      
650           191559        191559        191559        150138        150138        110646        110646        73903.6       73903.6       40227.5       40227.5      
700           192176        192176        192176        151355        151355        112158        112158        75282.4       75282.4       41008         41008        
750           192697        192697        192697        152385        152385        113443        113443        76462         76462         41682.9       41682.9      
800           193138        193138        193138        153257        153257        114534        114534        77467.7       77467.7       42261.9       42261.9      
850           193511        193511        193511        153996        153996        115460        115460        78322.7       78322.7       42756.1       42756.1      
900           193827        193827        193827        154622        154622        116245        116245        79048.1       79048.1       43176.1       43176.1      
950           194095        194095        194095        155152        155152        116909        116909        79662.5       79662.5       43532.2       43532.2      
1000          194321        194321        194321        155601        155601        117471        117471        80182.2       80182.2       43833.4       43833.4      
1050          194513        194513        194513        155980        155980        117946        117946        80621.3       80621.3       44088         44088        
1100          194675        194675        194675        156300        156300        118348        118348        80992.1       80992.1       44302.7       44302.7      
1150          194812        194812        194812        156571        156571        118686        118686        81304.8       81304.8       44483.8       44483.8      
1200          194927        194927        194927        156800        156800        118972        118972        81568.4       81568.4       44636.4       44636.4      
1250          195025        195025        195025        156993        156993        119213        119213        81790.6       81790.6       44764.9       44764.9      
1300          195107        195107        195107        157155        157155        119416        119416        81977.7       81977.7       44873.1       44873.1      
1350          195177        195177        195177        157292        157292        119587        119587        82135.3       82135.3       44964.2       44964.2      
1400          195235        195235        195235        157408        157408        119731        119731        82268         82268         45040.8       45040.8      
1450          195284        195284        195284        157505        157505        119853        119853        82379.7       82379.7       45105.3       45105.3      
1500          195326        195326        195326        157587        157587        119955        119955        82473.6       82473.6       45159.5       45159.5      
1550          195361        195361        195361        157656        157656        120041        120041        82552.7       82552.7       45205.2       45205.2      
1600          195390        195390        195390        157714        157714        120113        120113        82619.3       82619.3       45243.6       45243.6      
1650          195415        195415        195415        157762        157762        120174        120174        82675.3       82675.3       45275.9       45275.9      
1700          195436        195436        195436        157804        157804        120225        120225        82722.4       82722.4       45303.1       45303.1      
1750          195453        195453        195453        157838        157838        120268        120268        82762         82762         45325.9       45325.9      
1800          195468        195468        195468        157867        157867        120305        120305        82795.3       82795.3       45345.1       45345.1      
1850          195480        195480        195480        157892        157892        120335        120335        82823.4       82823.4       45361.3       45361.3      
1900          195491        195491        195491        157912        157912        120361        120361        82847.1       82847.1       45375         45375        
1950          195499        195499        195499        157930        157930        120382        120382        82866.8       82866.8       45386.3       45386.3      
2000          195507        195507        195507        157944        157944        120400        120400        82883.3       82883.3       45395.9       45395.9      
2050          195513        195513        195513        157956        157956        120416        120416        82897.4       82897.4       45404         45404        
2100          195518        195518        195518        157966        157966        120428        120428        82909         82909         45410.7       45410.7      
2150          195522        195522        195522        157975        157975        120439        120439        82919         82919         45416.4       45416.4      
2200          195526        195526        195526        157982        157982        120448        120448        82927.1       82927.1       45421.1       45421.1      
2250          195529        195529        195529        157988        157988        120456        120456        82934.2       82934.2       45425.2       45425.2      
2300          195531        195531        195531        157992        157992        120461        120461        82938.7       82938.7       45427.9       45427.9      
2350          195534        195534        195534        157997        157997        120467        120467        82944.2       82944.2       45431         45431        
2400          195535        195535        195535        158000        158000        120470        120470        82947.3       82947.3       45432.8       45432.8      
2450          195537        195537        195537        158004        158004        120474        120474        82951.5       82951.5       45435.2       45435.2      
2500          195538        195538        195538        158005        158005        120476        120476        82953         82953         45436.1       45436.1      
2550          195539        195539        195539        158007        158007        120479        120479        82955.7       82955.7       45437.7       45437.7      
2600          195539        195539        195539        158008        158008        120480        120480        82957.1       82957.1       45438.6       45438.6      
2650          195540        195540        195540        158009        158009        120482        120482        82958.3       82958.3       45439.3       45439.3      
2700          195540        195540        195540        158009        158009        120482        120482        82958.3       82958.3       45439.3       45439.3      
2750          195540        195540        195540        158009        158009        120482        120482        82958.3       82958.3       45439.3       45439.3      
2800          195540        195540        195540        158009        158009        120482        120482        82958.3       82958.3       45439.3       45439.3      
2850          195540        195540        195540        158009        158009        120482        120482        82958.3       82958.3       45439.3       45439.3      
2900          195540        195540        195540        158009        158009        120482        120482        82958.3       82958.3       45439.3       45439.3      
2950          195540        195540        195540        158009        158009        120482        120482        82958.3       82958.3       45439.3       45439.3      
3000          195540        195540        195540        158009        158009        120482        120482        82958.3       82958.3       45439.3       45439.3      
3050          195540        195540        195540        158009        158009        120482        120482        82958.3       82958.3       45439.3       45439.3      
3100          195540        195540        195540        158009        158009        120482        120482        82958.3       82958.3       45439.3       45439.3      
3150          195540        195540        195540        158009        158009        120482        120482        82958.3       82958.3       45439.3       45439.3      
3200          195540        195540        195540        158009        158009        120482        120482        82958.3       82958.3       45439.3       45439.3      
3250          195540        195540        195540        158009        158009        120482        120482        82958.3       82958.3       45439.3       45439.3      
3300          195540        195540        195540        158009        158009        120482        120482        82958.3       82958.3       45439.3       45439.3      
3350          195540        195540        195540        158009        158009        120482        120482        82958.3       82958.3       45439.3       45439.3      
3400          195540        195540        195540        158009        158009        120482        120482        82958.3       82958.3       45439.3       45439.3      
3450          195540        195540        195540        158009        158009        120482        120482        82958.3       82958.3       45439.3       45439.3      
3500          195540        195540        195540        158009        158009        120482        120482        82958.3       82958.3       45439.3       45439.3      
3550          195540        195540        195540        158009        158009        120482        120482        82958.3       82958.3       45439.3       45439.3      
3600          195540        195540        195540        158009        158009        120482        120482        82958.3       82958.3       45439.3       45439.3      
3650          195540        195540        195540        158009        158009        120482        120482        82958.3       82958.3       45439.3       45439.3      
3700          195540        195540        195540        158009        158009        120482        120482        82958.3       82958.3       45439.3       45439.3      
3750          195540        195540        195540        158009        158009        120482        120482        82958.3       82958.3       45439.3       45439.3      
3800          195540        195540        195540        158009        158009        120482        120482        82958.3       82958.3       45439.3       45439.3      
3850          195540        195540        195540        158009        158009        120482        120482        82958.3       82958.3       45439.3       45439.3      
3900          195540        195540        195540        158009        158009        120482        120482        82958.3       82958.3       45439.3       45439.3      
3950          195540        195540        195540        158009        158009        120482        120482        82958.3       82958.3       45439.3       45439.3      
4000          195540        195540        195540        158009        158009        120482        120482        82958.3       82958.3       45439.3       45439.3      
4050          195540        195540        195540        158009        158009        120482        120482        82958.3       82958.3       45439.3       45439.3      
4100          195540        195540        195540        158009        158009        120482        120482        82958.3       82958.3       45439.3       45439.3      
4150          195540        195540        195540        158009        158009        120482        120482        82958.3       82958.3       45439.3       45439.3      
4200          195540        195540        195540        158009        158009        120482        120482        82958.3       82958.3       45439.3       45439.3      
4250          195540        195540        195540        158009        158009        120482        120482        82958.3       82958.3       45439.3       45439.3      
4300          195540        195540        195540        158009        158009        120482        120482        82958.3       82958.3       45439.3       45439.3      
4350          195540        195540        195540        158009        158009        120482        120482        82958.3       82958.3       45439.3       45439.3      
4400          195540        195540        195540        158009        158009        120482        120482        82958.3       82958.3       45439.3       45439.3      
4450          195540        195540        195540        158009        158009        120482        120482        82958.3       82958.3       45439.3       45439.3      
4500          195540        195540        195540        158009        158009        120482        120482        82958.3       82958.3       45439.3       45439.3      
4550          195540        195540        195540        158009        158009        120482        120482        82958.3       82958.3       45439.3       45439.3      
4600          195540        195540        195540        158009        158009        120482        120482        82958.3       82958.3       45439.3       45439.3      
4650          195540        195540        195540        158009        158009        120482        120482        82958.3       82958.3       45439.3       45439.3      
4700          195540        195540        195540        158009        158009        120482        120482        82958.3       82958.3       45439.3       45439.3      
4750          195540        195540        195540        158009        158009        120482        120482        82958.3       82958.3       45439.3       45439.3      
4800          195540        195540        195540        158009        158009        120482        120482        82958.3       82958.3       45439.3       45439.3      
4850          195540        195540        195540        158009        158009        120482        120482        82958.3       82958.3       45439.3       45439.3      
4900          195540        195540        195540        158009        158009        120482        120482        82958.3       82958.3       45439.3       45439.3      
4950          195540        195540        195540        158009        158009        120482        120482        82958.3       82958.3       45439.3       45439.3      
5000          195540        195540        195540        158009        158009        120482        120482        82958.3       82958.3       45439.3       45439.3      
