# Probe 0 (0.0015 0.0015 0)
# Probe 1 (0.0015 0.0015 0.002)
# Probe 2 (0.0015 0.0015 0.004)
# Probe 3 (0.0015 0.0015 0.006)
# Probe 4 (0.0015 0.0015 0.008)
# Probe 5 (0.0015 0.0015 0.01)
# Probe 6 (0.0015 0.0015 0.012)
# Probe 7 (0.0015 0.0015 0.014)
# Probe 8 (0.0015 0.0015 0.016)
# Probe 9 (0.0015 0.0015 0.018)
# Probe 10 (0.0015 0.0015 0.02)
# Time        0             1             2             3             4             5             6             7             8             9             10           
50            (-7.15296 -7.15296 -2.22986e+07) (-7.15296 -7.15296 -2.22986e+07) (-7.15296 -7.15296 -2.22986e+07) (6.09744 6.09744 -8.92234e+06) (6.09744 6.09744 -8.92234e+06) (1.96815 1.96815 -2.32429e+06) (1.96815 1.96815 -2.32429e+06) (1.73774 1.73774 -1.78286e+06) (1.73774 1.73774 -1.78286e+06) (0.612673 0.612673 -5.13213e+06) (0.612673 0.612673 -5.13213e+06)
100           (-55.0166 -55.0166 -1.92178e+07) (-55.0166 -55.0166 -1.92178e+07) (-55.0166 -55.0166 -1.92178e+07) (4.94936 4.94936 -1.14205e+07) (4.94936 4.94936 -1.14205e+07) (29.1055 29.1055 -4.92695e+06) (29.1055 29.1055 -4.92695e+06) (19.6691 19.6691 -3.13676e+06) (19.6691 19.6691 -3.13676e+06) (2.38571 2.38571 -4.8399e+06) (2.38571 2.38571 -4.8399e+06)
150           (-33.5445 -33.5445 -1.68682e+07) (-33.5445 -33.5445 -1.68682e+07) (-33.5445 -33.5445 -1.68682e+07) (-9.08149 -9.08149 -1.20835e+07) (-9.08149 -9.08149 -1.20835e+07) (15.0521 15.0521 -6.88065e+06) (15.0521 15.0521 -6.88065e+06) (14.985 14.985 -4.40856e+06) (14.985 14.985 -4.40856e+06) (2.73671 2.73671 -4.84876e+06) (2.73671 2.73671 -4.84876e+06)
200           (-22.9813 -22.9813 -1.52067e+07) (-22.9813 -22.9813 -1.52067e+07) (-22.9813 -22.9813 -1.52067e+07) (-11.3778 -11.3778 -1.20725e+07) (-11.3778 -11.3778 -1.20725e+07) (6.75222 6.75222 -8.10517e+06) (6.75222 6.75222 -8.10517e+06) (11.5014 11.5014 -5.4989e+06) (11.5014 11.5014 -5.4989e+06) (3.66982 3.66982 -5.06988e+06) (3.66982 3.66982 -5.06988e+06)
250           (19.8347 19.8347 -1.40184e+07) (19.8347 19.8347 -1.40184e+07) (19.8347 19.8347 -1.40184e+07) (12.8349 12.8349 -1.18412e+07) (12.8349 12.8349 -1.18412e+07) (-2.05243 -2.05243 -8.81853e+06) (-2.05243 -2.05243 -8.81853e+06) (-9.02824 -9.02824 -6.3649e+06) (-9.02824 -9.02824 -6.3649e+06) (-4.19012 -4.19012 -5.41792e+06) (-4.19012 -4.19012 -5.41792e+06)
300           (13.0342 13.0342 -1.31408e+07) (13.0342 13.0342 -1.31408e+07) (13.0342 13.0342 -1.31408e+07) (10.0221 10.0221 -1.15538e+07) (10.0221 10.0221 -1.15538e+07) (0.834006 0.834006 -9.21601e+06) (0.834006 0.834006 -9.21601e+06) (-5.40466 -5.40466 -7.02422e+06) (-5.40466 -5.40466 -7.02422e+06) (-3.7966 -3.7966 -5.82362e+06) (-3.7966 -3.7966 -5.82362e+06)
350           (11.2937 11.2937 -1.24717e+07) (11.2937 11.2937 -1.24717e+07) (11.2937 11.2937 -1.24717e+07) (9.83257 9.83257 -1.12697e+07) (9.83257 9.83257 -1.12697e+07) (2.75591 2.75591 -9.42642e+06) (2.75591 2.75591 -9.42642e+06) (-3.73264 -3.73264 -7.51813e+06) (-3.73264 -3.73264 -7.51813e+06) (-4.15461 -4.15461 -6.24036e+06) (-4.15461 -4.15461 -6.24036e+06)
400           (-25.3069 -25.3069 -1.19473e+07) (-25.3069 -25.3069 -1.19473e+07) (-25.3069 -25.3069 -1.19473e+07) (-23.8008 -23.8008 -1.10089e+07) (-23.8008 -23.8008 -1.10089e+07) (-11.5978 -11.5978 -9.52862e+06) (-11.5978 -11.5978 -9.52862e+06) (2.7984 2.7984 -7.88846e+06) (2.7984 2.7984 -7.88846e+06) (10.011 10.011 -6.64062e+06) (10.011 10.011 -6.64062e+06)
450           (2.71335 2.71335 -1.15272e+07) (2.71335 2.71335 -1.15272e+07) (2.71335 2.71335 -1.15272e+07) (3.03774 3.03774 -1.0777e+07) (3.03774 3.03774 -1.0777e+07) (1.98813 1.98813 -9.56955e+06) (1.98813 1.98813 -9.56955e+06) (0.33935 0.33935 -8.16899e+06) (0.33935 0.33935 -8.16899e+06) (-0.714438 -0.714438 -7.01012e+06) (-0.714438 -0.714438 -7.01012e+06)
500           (4.34122 4.34122 -1.11845e+07) (4.34122 4.34122 -1.11845e+07) (4.34122 4.34122 -1.11845e+07) (5.30123 5.30123 -1.05737e+07) (5.30123 5.30123 -1.05737e+07) (3.81192 3.81192 -9.57709e+06) (3.81192 3.81192 -9.57709e+06) (0.366032 0.366032 -8.38542e+06) (0.366032 0.366032 -8.38542e+06) (-2.06779 -2.06779 -7.34269e+06) (-2.06779 -2.06779 -7.34269e+06)
550           (-7.89482 -7.89482 -1.09012e+07) (-7.89482 -7.89482 -1.09012e+07) (-7.89482 -7.89482 -1.09012e+07) (-8.29281 -8.29281 -1.03972e+07) (-8.29281 -8.29281 -1.03972e+07) (-5.68535 -5.68535 -9.56732e+06) (-5.68535 -5.68535 -9.56732e+06) (-1.70414 -1.70414 -8.55541e+06) (-1.70414 -1.70414 -8.55541e+06) (2.06043 2.06043 -7.63705e+06) (2.06043 2.06043 -7.63705e+06)
600           (-6.4248 -6.4248 -1.06648e+07) (-6.4248 -6.4248 -1.06648e+07) (-6.4248 -6.4248 -1.06648e+07) (-6.955 -6.955 -1.02449e+07) (-6.955 -6.955 -1.02449e+07) (-4.89744 -4.89744 -9.54965e+06) (-4.89744 -4.89744 -9.54965e+06) (-1.43149 -1.43149 -8.69148e+06) (-1.43149 -1.43149 -8.69148e+06) (1.66428 1.66428 -7.89432e+06) (1.66428 1.66428 -7.89432e+06)
650           (-5.15392 -5.15392 -1.04662e+07) (-5.15392 -5.15392 -1.04662e+07) (-5.15392 -5.15392 -1.04662e+07) (-5.73687 -5.73687 -1.01141e+07) (-5.73687 -5.73687 -1.01141e+07) (-4.16223 -4.16223 -9.52931e+06) (-4.16223 -4.16223 -9.52931e+06) (-1.29242 -1.29242 -8.80231e+06) (-1.29242 -1.29242 -8.80231e+06) (1.17848 1.17848 -8.11724e+06) (1.17848 1.17848 -8.11724e+06)
700           (-4.16946 -4.16946 -1.02987e+07) (-4.16946 -4.16946 -1.02987e+07) (-4.16946 -4.16946 -1.02987e+07) (-4.74695 -4.74695 -1.00022e+07) (-4.74695 -4.74695 -1.00022e+07) (-3.53116 -3.53116 -9.50907e+06) (-3.53116 -3.53116 -9.50907e+06) (-1.16975 -1.16975 -8.8938e+06) (-1.16975 -1.16975 -8.8938e+06) (0.806338 0.806338 -8.30911e+06) (0.806338 0.806338 -8.30911e+06)
750           (-3.41931 -3.41931 -1.0157e+07) (-3.41931 -3.41931 -1.0157e+07) (-3.41931 -3.41931 -1.0157e+07) (-3.95606 -3.95606 -9.9067e+06) (-3.95606 -3.95606 -9.9067e+06) (-2.9958 -2.9958 -9.49033e+06) (-2.9958 -2.9958 -9.49033e+06) (-1.0406 -1.0406 -8.97007e+06) (-1.0406 -1.0406 -8.97007e+06) (0.561686 0.561686 -8.47343e+06) (0.561686 0.561686 -8.47343e+06)
800           (-2.83855 -2.83855 -1.00369e+07) (-2.83855 -2.83855 -1.00369e+07) (-2.83855 -2.83855 -1.00369e+07) (-3.31831 -3.31831 -9.8254e+06) (-3.31831 -3.31831 -9.8254e+06) (-2.54176 -2.54176 -9.47363e+06) (-2.54176 -2.54176 -9.47363e+06) (-0.909229 -0.909229 -9.03407e+06) (-0.909229 -0.909229 -9.03407e+06) (0.410376 0.410376 -8.61361e+06) (0.410376 0.410376 -8.61361e+06)
850           (-2.37763 -2.37763 -9.93523e+06) (-2.37763 -2.37763 -9.93523e+06) (-2.37763 -2.37763 -9.93523e+06) (-2.7961 -2.7961 -9.75634e+06) (-2.7961 -2.7961 -9.75634e+06) (-2.15601 -2.15601 -9.45913e+06) (-2.15601 -2.15601 -9.45913e+06) (-0.783379 -0.783379 -9.08801e+06) (-0.783379 -0.783379 -9.08801e+06) (0.317553 0.317553 -8.73284e+06) (0.317553 0.317553 -8.73284e+06)
900           (-2.00316 -2.00316 -9.84907e+06) (-2.00316 -2.00316 -9.84907e+06) (-2.00316 -2.00316 -9.84907e+06) (-2.3626 -2.3626 -9.69778e+06) (-2.3626 -2.3626 -9.69778e+06) (-1.82784 -1.82784 -9.4467e+06) (-1.82784 -1.82784 -9.4467e+06) (-0.668301 -0.668301 -9.13358e+06) (-0.668301 -0.668301 -9.13358e+06) (0.25854 0.25854 -8.83402e+06) (0.25854 0.25854 -8.83402e+06)
950           (-1.69336 -1.69336 -9.77611e+06) (-1.69336 -1.69336 -9.77611e+06) (-1.69336 -1.69336 -9.77611e+06) (-1.99913 -1.99913 -9.6482e+06) (-1.99913 -1.99913 -9.6482e+06) (-1.54854 -1.54854 -9.43617e+06) (-1.54854 -1.54854 -9.43617e+06) (-0.566376 -0.566376 -9.17211e+06) (-0.566376 -0.566376 -9.17211e+06) (0.21823 0.21823 -8.91972e+06) (0.21823 0.21823 -8.91972e+06)
1000          (-1.43386 -1.43386 -9.71436e+06) (-1.43386 -1.43386 -9.71436e+06) (-1.43386 -1.43386 -9.71436e+06) (-1.6924 -1.6924 -9.60626e+06) (-1.6924 -1.6924 -9.60626e+06) (-1.31089 -1.31089 -9.42729e+06) (-1.31089 -1.31089 -9.42729e+06) (-0.47797 -0.47797 -9.20472e+06) (-0.47797 -0.47797 -9.20472e+06) (0.188145 0.188145 -8.99222e+06) (0.188145 0.188145 -8.99222e+06)
1050          (-8.80604 -8.80604 -9.66216e+06) (-8.80604 -8.80604 -9.66216e+06) (-8.80604 -8.80604 -9.66216e+06) (-8.79465 -8.79465 -9.57083e+06) (-8.79465 -8.79465 -9.57083e+06) (-5.29072 -5.29072 -9.41981e+06) (-5.29072 -5.29072 -9.41981e+06) (0.448894 0.448894 -9.23228e+06) (0.448894 0.448894 -9.23228e+06) (5.87882 5.87882 -9.05347e+06) (5.87882 5.87882 -9.05347e+06)
1100          (-7.56929 -7.56929 -9.61804e+06) (-7.56929 -7.56929 -9.61804e+06) (-7.56929 -7.56929 -9.61804e+06) (-7.55421 -7.55421 -9.54092e+06) (-7.55421 -7.55421 -9.54092e+06) (-4.51799 -4.51799 -9.41354e+06) (-4.51799 -4.51799 -9.41354e+06) (0.428743 0.428743 -9.2556e+06) (0.428743 0.428743 -9.2556e+06) (5.04702 5.04702 -9.10518e+06) (5.04702 5.04702 -9.10518e+06)
1150          (-6.38672 -6.38672 -9.58077e+06) (-6.38672 -6.38672 -9.58077e+06) (-6.38672 -6.38672 -9.58077e+06) (-6.36884 -6.36884 -9.51569e+06) (-6.36884 -6.36884 -9.51569e+06) (-3.80472 -3.80472 -9.4083e+06) (-3.80472 -3.80472 -9.4083e+06) (0.368925 0.368925 -9.27531e+06) (0.368925 0.368925 -9.27531e+06) (4.28197 4.28197 -9.1488e+06) (4.28197 4.28197 -9.1488e+06)
1200          (-5.38498 -5.38498 -9.54931e+06) (-5.38498 -5.38498 -9.54931e+06) (-5.38498 -5.38498 -9.54931e+06) (-5.36593 -5.36593 -9.49442e+06) (-5.36593 -5.36593 -9.49442e+06) (-3.20105 -3.20105 -9.40392e+06) (-3.20105 -3.20105 -9.40392e+06) (0.315593 0.315593 -9.29196e+06) (0.315593 0.315593 -9.29196e+06) (3.61327 3.61327 -9.18556e+06) (3.61327 3.61327 -9.18556e+06)
1250          (-4.53833 -4.53833 -9.52277e+06) (-4.53833 -4.53833 -9.52277e+06) (-4.53833 -4.53833 -9.52277e+06) (-4.51911 -4.51911 -9.47649e+06) (-4.51911 -4.51911 -9.47649e+06) (-2.6923 -2.6923 -9.40025e+06) (-2.6923 -2.6923 -9.40025e+06) (0.26941 0.26941 -9.30601e+06) (0.26941 0.26941 -9.30601e+06) (3.04424 3.04424 -9.21655e+06) (3.04424 3.04424 -9.21655e+06)
1300          (-3.82331 -3.82331 -9.50039e+06) (-3.82331 -3.82331 -9.50039e+06) (-3.82331 -3.82331 -9.50039e+06) (-3.80483 -3.80483 -9.46139e+06) (-3.80483 -3.80483 -9.46139e+06) (-2.26412 -2.26412 -9.39718e+06) (-2.26412 -2.26412 -9.39718e+06) (0.229503 0.229503 -9.31788e+06) (0.229503 0.229503 -9.31788e+06) (2.56331 2.56331 -9.24265e+06) (2.56331 2.56331 -9.24265e+06)
1350          (-3.21994 -3.21994 -9.48152e+06) (-3.21994 -3.21994 -9.48152e+06) (-3.21994 -3.21994 -9.48152e+06) (-3.20268 -3.20268 -9.44867e+06) (-3.20268 -3.20268 -9.44867e+06) (-1.90386 -1.90386 -9.39461e+06) (-1.90386 -1.90386 -9.39461e+06) (0.195153 0.195153 -9.32788e+06) (0.195153 0.195153 -9.32788e+06) (2.15767 2.15767 -9.26463e+06) (2.15767 2.15767 -9.26463e+06)
1400          (-2.71106 -2.71106 -9.46563e+06) (-2.71106 -2.71106 -9.46563e+06) (-2.71106 -2.71106 -9.46563e+06) (-2.69531 -2.69531 -9.43796e+06) (-2.69531 -2.69531 -9.43796e+06) (-1.60084 -1.60084 -9.39245e+06) (-1.60084 -1.60084 -9.39245e+06) (0.165671 0.165671 -9.33631e+06) (0.165671 0.165671 -9.33631e+06) (1.81583 1.81583 -9.28313e+06) (1.81583 1.81583 -9.28313e+06)
1450          (-2.2821 -2.2821 -9.45224e+06) (-2.2821 -2.2821 -9.45224e+06) (-2.2821 -2.2821 -9.45224e+06) (-2.26796 -2.26796 -9.42895e+06) (-2.26796 -2.26796 -9.42895e+06) (-1.346 -1.346 -9.39064e+06) (-1.346 -1.346 -9.39064e+06) (0.14044 0.14044 -9.34342e+06) (0.14044 0.14044 -9.34342e+06) (1.52791 1.52791 -9.2987e+06) (1.52791 1.52791 -9.2987e+06)
1500          (6.76511 6.76511 -9.44099e+06) (6.76511 6.76511 -9.44099e+06) (6.76511 6.76511 -9.44099e+06) (7.72938 7.72938 -9.42138e+06) (7.72938 7.72938 -9.42138e+06) (6.00494 6.00494 -9.38913e+06) (6.00494 6.00494 -9.38913e+06) (2.1545 2.1545 -9.34939e+06) (2.1545 2.1545 -9.34939e+06) (-2.66981 -2.66981 -9.31179e+06) (-2.66981 -2.66981 -9.31179e+06)
1550          (2.10228 2.10228 -9.4315e+06) (2.10228 2.10228 -9.4315e+06) (2.10228 2.10228 -9.4315e+06) (2.45235 2.45235 -9.41499e+06) (2.45235 2.45235 -9.41499e+06) (1.97064 1.97064 -9.38786e+06) (1.97064 1.97064 -9.38786e+06) (0.801142 0.801142 -9.35444e+06) (0.801142 0.801142 -9.35444e+06) (-0.756524 -0.756524 -9.32283e+06) (-0.756524 -0.756524 -9.32283e+06)
1600          (1.60464 1.60464 -9.42351e+06) (1.60464 1.60464 -9.42351e+06) (1.60464 1.60464 -9.42351e+06) (1.8794 1.8794 -9.40961e+06) (1.8794 1.8794 -9.40961e+06) (1.52221 1.52221 -9.38679e+06) (1.52221 1.52221 -9.38679e+06) (0.638932 0.638932 -9.35869e+06) (0.638932 0.638932 -9.35869e+06) (-0.573681 -0.573681 -9.33211e+06) (-0.573681 -0.573681 -9.33211e+06)
1650          (1.34546 1.34546 -9.41679e+06) (1.34546 1.34546 -9.41679e+06) (1.34546 1.34546 -9.41679e+06) (1.57409 1.57409 -9.40509e+06) (1.57409 1.57409 -9.40509e+06) (1.27462 1.27462 -9.38589e+06) (1.27462 1.27462 -9.38589e+06) (0.535409 0.535409 -9.36226e+06) (0.535409 0.535409 -9.36226e+06) (-0.48048 -0.48048 -9.33991e+06) (-0.48048 -0.48048 -9.33991e+06)
1700          (1.13171 1.13171 -9.41113e+06) (1.13171 1.13171 -9.41113e+06) (1.13171 1.13171 -9.41113e+06) (1.32456 1.32456 -9.40129e+06) (1.32456 1.32456 -9.40129e+06) (1.07198 1.07198 -9.38514e+06) (1.07198 1.07198 -9.38514e+06) (0.449611 0.449611 -9.36527e+06) (0.449611 0.449611 -9.36527e+06) (-0.404382 -0.404383 -9.34648e+06) (-0.404382 -0.404383 -9.34648e+06)
1750          (0.952421 0.952421 -9.40637e+06) (0.952421 0.952421 -9.40637e+06) (0.952421 0.952421 -9.40637e+06) (1.11407 1.11407 -9.3981e+06) (1.11407 1.11407 -9.3981e+06) (0.901387 0.901387 -9.38451e+06) (0.901387 0.901387 -9.38451e+06) (0.377911 0.377911 -9.3678e+06) (0.377911 0.377911 -9.3678e+06) (-0.340213 -0.340213 -9.352e+06) (-0.340213 -0.340213 -9.352e+06)
1800          (0.801257 0.801258 -9.40237e+06) (0.801257 0.801258 -9.40237e+06) (0.801257 0.801258 -9.40237e+06) (0.937345 0.937345 -9.39541e+06) (0.937345 0.937345 -9.39541e+06) (0.758193 0.758193 -9.38398e+06) (0.758193 0.758193 -9.38398e+06) (0.317624 0.317624 -9.36993e+06) (0.317624 0.317624 -9.36993e+06) (-0.286306 -0.286306 -9.35665e+06) (-0.286306 -0.286306 -9.35665e+06)
1850          (4.40953 4.40953 -9.399e+06) (4.40953 4.40953 -9.399e+06) (4.40953 4.40953 -9.399e+06) (4.76408 4.76408 -9.39314e+06) (4.76408 4.76408 -9.39314e+06) (3.37719 3.37719 -9.38354e+06) (3.37719 3.37719 -9.38354e+06) (0.728245 0.728245 -9.37172e+06) (0.728245 0.728245 -9.37172e+06) (-2.28393 -2.28393 -9.36056e+06) (-2.28393 -2.28393 -9.36056e+06)
1900          (2.0978 2.0978 -9.39615e+06) (2.0978 2.0978 -9.39615e+06) (2.0978 2.0978 -9.39615e+06) (2.33419 2.33419 -9.39123e+06) (2.33419 2.33419 -9.39123e+06) (1.70592 1.70592 -9.38316e+06) (1.70592 1.70592 -9.38316e+06) (0.36923 0.36923 -9.37323e+06) (0.36923 0.36923 -9.37323e+06) (-1.25206 -1.25206 -9.36386e+06) (-1.25206 -1.25206 -9.36386e+06)
1950          (-0.240699 -0.240699 -9.39379e+06) (-0.240699 -0.240699 -9.39379e+06) (-0.240699 -0.240699 -9.39379e+06) (0.224571 0.224571 -9.38964e+06) (0.224571 0.224571 -9.38964e+06) (0.709752 0.709752 -9.38284e+06) (0.709752 0.709752 -9.38284e+06) (1.0287 1.0287 -9.37449e+06) (1.0287 1.0287 -9.37449e+06) (0.947107 0.947107 -9.36661e+06) (0.947107 0.947107 -9.36661e+06)
2000          (2.27581 2.27581 -9.39179e+06) (2.27581 2.27581 -9.39179e+06) (2.27581 2.27581 -9.39179e+06) (2.67987 2.67987 -9.3883e+06) (2.67987 2.67987 -9.3883e+06) (2.18415 2.18415 -9.38258e+06) (2.18415 2.18415 -9.38258e+06) (0.994103 0.994103 -9.37555e+06) (0.994103 0.994103 -9.37555e+06) (-0.535201 -0.535201 -9.36892e+06) (-0.535201 -0.535201 -9.36892e+06)
2050          (-0.756114 -0.756114 -9.39009e+06) (-0.756114 -0.756114 -9.39009e+06) (-0.756114 -0.756114 -9.39009e+06) (-1.17807 -1.17807 -9.38716e+06) (-1.17807 -1.17807 -9.38716e+06) (-1.19255 -1.19255 -9.38236e+06) (-1.19255 -1.19255 -9.38236e+06) (-0.846699 -0.846699 -9.37645e+06) (-0.846699 -0.846699 -9.37645e+06) (-0.285844 -0.285844 -9.37089e+06) (-0.285844 -0.285844 -9.37089e+06)
2100          (-0.378303 -0.378303 -9.38871e+06) (-0.378303 -0.378303 -9.38871e+06) (-0.378303 -0.378303 -9.38871e+06) (0.145366 0.145366 -9.38623e+06) (0.145366 0.145366 -9.38623e+06) (0.727915 0.727915 -9.38217e+06) (0.727915 0.727915 -9.38217e+06) (1.19702 1.19702 -9.37719e+06) (1.19702 1.19702 -9.37719e+06) (1.28226 1.28226 -9.3725e+06) (1.28226 1.28226 -9.3725e+06)
2150          (-1.67272 -1.67272 -9.38751e+06) (-1.67272 -1.67272 -9.38751e+06) (-1.67272 -1.67272 -9.38751e+06) (-2.12654 -2.12654 -9.38543e+06) (-2.12654 -2.12654 -9.38543e+06) (-1.77892 -1.77892 -9.38201e+06) (-1.77892 -1.77892 -9.38201e+06) (-0.918466 -0.918466 -9.37783e+06) (-0.918466 -0.918466 -9.37783e+06) (0.106764 0.106764 -9.37389e+06) (0.106764 0.106764 -9.37389e+06)
2200          (-0.230302 -0.230302 -9.38653e+06) (-0.230302 -0.230302 -9.38653e+06) (-0.230302 -0.230302 -9.38653e+06) (0.105952 0.105952 -9.38477e+06) (0.105952 0.105952 -9.38477e+06) (0.448577 0.448577 -9.38189e+06) (0.448577 0.448577 -9.38189e+06) (0.823233 0.823233 -9.37835e+06) (0.823233 0.823233 -9.37835e+06) (1.02169 1.02169 -9.37502e+06) (1.02169 1.02169 -9.37502e+06)
2250          (-1.50657 -1.50657 -9.38568e+06) (-1.50657 -1.50657 -9.38568e+06) (-1.50657 -1.50657 -9.38568e+06) (-1.61835 -1.61835 -9.3842e+06) (-1.61835 -1.61835 -9.3842e+06) (-1.10542 -1.10542 -9.38177e+06) (-1.10542 -1.10542 -9.38177e+06) (-0.435553 -0.435553 -9.3788e+06) (-0.435553 -0.435553 -9.3788e+06) (0.167121 0.167121 -9.37601e+06) (0.167121 0.167121 -9.37601e+06)
2300          (-2.85264 -2.85264 -9.38513e+06) (-2.85264 -2.85264 -9.38513e+06) (-2.85264 -2.85264 -9.38513e+06) (-3.15214 -3.15214 -9.38384e+06) (-3.15214 -3.15214 -9.38384e+06) (-2.25896 -2.25896 -9.38171e+06) (-2.25896 -2.25896 -9.38171e+06) (-0.737889 -0.737889 -9.37909e+06) (-0.737889 -0.737889 -9.37909e+06) (0.875906 0.875906 -9.37664e+06) (0.875906 0.875906 -9.37664e+06)
2350          (-0.201976 -0.201976 -9.38446e+06) (-0.201976 -0.201976 -9.38446e+06) (-0.201976 -0.201976 -9.38446e+06) (0.120569 0.120569 -9.3834e+06) (0.120569 0.120569 -9.3834e+06) (0.341632 0.341632 -9.38163e+06) (0.341632 0.341632 -9.38163e+06) (0.577823 0.577823 -9.37945e+06) (0.577823 0.577823 -9.37945e+06) (0.832525 0.832525 -9.3774e+06) (0.832525 0.832525 -9.3774e+06)
2400          (-0.281987 -0.281987 -9.38408e+06) (-0.281987 -0.281987 -9.38408e+06) (-0.281987 -0.281987 -9.38408e+06) (0.0261641 0.0261642 -9.38315e+06) (0.0261641 0.0261642 -9.38315e+06) (0.238011 0.238011 -9.38159e+06) (0.238011 0.238011 -9.38159e+06) (0.494071 0.494071 -9.37965e+06) (0.494071 0.494071 -9.37965e+06) (0.842469 0.842469 -9.37784e+06) (0.842469 0.842469 -9.37784e+06)
2450          (-0.951346 -0.951346 -9.38359e+06) (-0.951346 -0.951346 -9.38359e+06) (-0.951346 -0.951346 -9.38359e+06) (-1.21243 -1.21243 -9.38281e+06) (-1.21243 -1.21243 -9.38281e+06) (-0.817014 -0.817014 -9.38151e+06) (-0.817014 -0.817014 -9.38151e+06) (-0.191533 -0.191533 -9.37991e+06) (-0.191533 -0.191533 -9.37991e+06) (0.116237 0.116237 -9.37842e+06) (0.116237 0.116237 -9.37842e+06)
2500          (-0.206308 -0.206308 -9.38342e+06) (-0.206308 -0.206308 -9.38342e+06) (-0.206308 -0.206308 -9.38342e+06) (0.160104 0.160104 -9.38268e+06) (0.160104 0.160104 -9.38268e+06) (0.333413 0.333413 -9.38147e+06) (0.333413 0.333413 -9.38147e+06) (0.453286 0.453286 -9.38e+06) (0.453286 0.453286 -9.38e+06) (0.692006 0.692006 -9.37863e+06) (0.692006 0.692006 -9.37863e+06)
2550          (-0.177002 -0.177002 -9.38312e+06) (-0.177002 -0.177002 -9.38312e+06) (-0.177002 -0.177002 -9.38312e+06) (0.154992 0.154992 -9.38246e+06) (0.154992 0.154992 -9.38246e+06) (0.345731 0.345731 -9.38142e+06) (0.345731 0.345731 -9.38142e+06) (0.453564 0.453564 -9.38016e+06) (0.453564 0.453564 -9.38016e+06) (0.6521 0.6521 -9.379e+06) (0.6521 0.6521 -9.379e+06)
2600          (-1.0535 -1.0535 -9.38297e+06) (-1.0535 -1.0535 -9.38297e+06) (-1.0535 -1.0535 -9.38297e+06) (-1.40951 -1.40951 -9.38235e+06) (-1.40951 -1.40951 -9.38235e+06) (-1.08611 -1.08611 -9.38137e+06) (-1.08611 -1.08611 -9.38137e+06) (-0.31679 -0.31679 -9.38022e+06) (-0.31679 -0.31679 -9.38022e+06) (0.287321 0.287321 -9.37921e+06) (0.287321 0.287321 -9.37921e+06)
2650          (-0.191995 -0.191995 -9.38284e+06) (-0.191995 -0.191995 -9.38284e+06) (-0.191995 -0.191995 -9.38284e+06) (0.0784238 0.0784238 -9.38225e+06) (0.0784238 0.0784238 -9.38225e+06) (0.241322 0.241322 -9.38134e+06) (0.241322 0.241322 -9.38134e+06) (0.365129 0.365129 -9.38029e+06) (0.365129 0.365129 -9.38029e+06) (0.607976 0.607976 -9.37938e+06) (0.607976 0.607976 -9.37938e+06)
2700          (-0.191995 -0.191995 -9.38284e+06) (-0.191995 -0.191995 -9.38284e+06) (-0.191995 -0.191995 -9.38284e+06) (0.0784238 0.0784238 -9.38225e+06) (0.0784238 0.0784238 -9.38225e+06) (0.241322 0.241322 -9.38134e+06) (0.241322 0.241322 -9.38134e+06) (0.365129 0.365129 -9.38029e+06) (0.365129 0.365129 -9.38029e+06) (0.607976 0.607976 -9.37938e+06) (0.607976 0.607976 -9.37938e+06)
2750          (-0.191995 -0.191995 -9.38284e+06) (-0.191995 -0.191995 -9.38284e+06) (-0.191995 -0.191995 -9.38284e+06) (0.0784238 0.0784238 -9.38225e+06) (0.0784238 0.0784238 -9.38225e+06) (0.241322 0.241322 -9.38134e+06) (0.241322 0.241322 -9.38134e+06) (0.365129 0.365129 -9.38029e+06) (0.365129 0.365129 -9.38029e+06) (0.607976 0.607976 -9.37938e+06) (0.607976 0.607976 -9.37938e+06)
2800          (-0.191995 -0.191995 -9.38284e+06) (-0.191995 -0.191995 -9.38284e+06) (-0.191995 -0.191995 -9.38284e+06) (0.0784238 0.0784238 -9.38225e+06) (0.0784238 0.0784238 -9.38225e+06) (0.241322 0.241322 -9.38134e+06) (0.241322 0.241322 -9.38134e+06) (0.365129 0.365129 -9.38029e+06) (0.365129 0.365129 -9.38029e+06) (0.607976 0.607976 -9.37938e+06) (0.607976 0.607976 -9.37938e+06)
2850          (-0.191995 -0.191995 -9.38284e+06) (-0.191995 -0.191995 -9.38284e+06) (-0.191995 -0.191995 -9.38284e+06) (0.0784238 0.0784238 -9.38225e+06) (0.0784238 0.0784238 -9.38225e+06) (0.241322 0.241322 -9.38134e+06) (0.241322 0.241322 -9.38134e+06) (0.365129 0.365129 -9.38029e+06) (0.365129 0.365129 -9.38029e+06) (0.607976 0.607976 -9.37938e+06) (0.607976 0.607976 -9.37938e+06)
2900          (-0.191995 -0.191995 -9.38284e+06) (-0.191995 -0.191995 -9.38284e+06) (-0.191995 -0.191995 -9.38284e+06) (0.0784238 0.0784238 -9.38225e+06) (0.0784238 0.0784238 -9.38225e+06) (0.241322 0.241322 -9.38134e+06) (0.241322 0.241322 -9.38134e+06) (0.365129 0.365129 -9.38029e+06) (0.365129 0.365129 -9.38029e+06) (0.607976 0.607976 -9.37938e+06) (0.607976 0.607976 -9.37938e+06)
2950          (-0.191995 -0.191995 -9.38284e+06) (-0.191995 -0.191995 -9.38284e+06) (-0.191995 -0.191995 -9.38284e+06) (0.0784238 0.0784238 -9.38225e+06) (0.0784238 0.0784238 -9.38225e+06) (0.241322 0.241322 -9.38134e+06) (0.241322 0.241322 -9.38134e+06) (0.365129 0.365129 -9.38029e+06) (0.365129 0.365129 -9.38029e+06) (0.607976 0.607976 -9.37938e+06) (0.607976 0.607976 -9.37938e+06)
3000          (-0.191995 -0.191995 -9.38284e+06) (-0.191995 -0.191995 -9.38284e+06) (-0.191995 -0.191995 -9.38284e+06) (0.0784238 0.0784238 -9.38225e+06) (0.0784238 0.0784238 -9.38225e+06) (0.241322 0.241322 -9.38134e+06) (0.241322 0.241322 -9.38134e+06) (0.365129 0.365129 -9.38029e+06) (0.365129 0.365129 -9.38029e+06) (0.607976 0.607976 -9.37938e+06) (0.607976 0.607976 -9.37938e+06)
3050          (-0.191995 -0.191995 -9.38284e+06) (-0.191995 -0.191995 -9.38284e+06) (-0.191995 -0.191995 -9.38284e+06) (0.0784238 0.0784238 -9.38225e+06) (0.0784238 0.0784238 -9.38225e+06) (0.241322 0.241322 -9.38134e+06) (0.241322 0.241322 -9.38134e+06) (0.365129 0.365129 -9.38029e+06) (0.365129 0.365129 -9.38029e+06) (0.607976 0.607976 -9.37938e+06) (0.607976 0.607976 -9.37938e+06)
3100          (-0.191995 -0.191995 -9.38284e+06) (-0.191995 -0.191995 -9.38284e+06) (-0.191995 -0.191995 -9.38284e+06) (0.0784238 0.0784238 -9.38225e+06) (0.0784238 0.0784238 -9.38225e+06) (0.241322 0.241322 -9.38134e+06) (0.241322 0.241322 -9.38134e+06) (0.365129 0.365129 -9.38029e+06) (0.365129 0.365129 -9.38029e+06) (0.607976 0.607976 -9.37938e+06) (0.607976 0.607976 -9.37938e+06)
3150          (-0.191995 -0.191995 -9.38284e+06) (-0.191995 -0.191995 -9.38284e+06) (-0.191995 -0.191995 -9.38284e+06) (0.0784238 0.0784238 -9.38225e+06) (0.0784238 0.0784238 -9.38225e+06) (0.241322 0.241322 -9.38134e+06) (0.241322 0.241322 -9.38134e+06) (0.365129 0.365129 -9.38029e+06) (0.365129 0.365129 -9.38029e+06) (0.607976 0.607976 -9.37938e+06) (0.607976 0.607976 -9.37938e+06)
3200          (-0.191995 -0.191995 -9.38284e+06) (-0.191995 -0.191995 -9.38284e+06) (-0.191995 -0.191995 -9.38284e+06) (0.0784238 0.0784238 -9.38225e+06) (0.0784238 0.0784238 -9.38225e+06) (0.241322 0.241322 -9.38134e+06) (0.241322 0.241322 -9.38134e+06) (0.365129 0.365129 -9.38029e+06) (0.365129 0.365129 -9.38029e+06) (0.607976 0.607976 -9.37938e+06) (0.607976 0.607976 -9.37938e+06)
3250          (-0.191995 -0.191995 -9.38284e+06) (-0.191995 -0.191995 -9.38284e+06) (-0.191995 -0.191995 -9.38284e+06) (0.0784238 0.0784238 -9.38225e+06) (0.0784238 0.0784238 -9.38225e+06) (0.241322 0.241322 -9.38134e+06) (0.241322 0.241322 -9.38134e+06) (0.365129 0.365129 -9.38029e+06) (0.365129 0.365129 -9.38029e+06) (0.607976 0.607976 -9.37938e+06) (0.607976 0.607976 -9.37938e+06)
3300          (-0.191995 -0.191995 -9.38284e+06) (-0.191995 -0.191995 -9.38284e+06) (-0.191995 -0.191995 -9.38284e+06) (0.0784238 0.0784238 -9.38225e+06) (0.0784238 0.0784238 -9.38225e+06) (0.241322 0.241322 -9.38134e+06) (0.241322 0.241322 -9.38134e+06) (0.365129 0.365129 -9.38029e+06) (0.365129 0.365129 -9.38029e+06) (0.607976 0.607976 -9.37938e+06) (0.607976 0.607976 -9.37938e+06)
3350          (-0.191995 -0.191995 -9.38284e+06) (-0.191995 -0.191995 -9.38284e+06) (-0.191995 -0.191995 -9.38284e+06) (0.0784238 0.0784238 -9.38225e+06) (0.0784238 0.0784238 -9.38225e+06) (0.241322 0.241322 -9.38134e+06) (0.241322 0.241322 -9.38134e+06) (0.365129 0.365129 -9.38029e+06) (0.365129 0.365129 -9.38029e+06) (0.607976 0.607976 -9.37938e+06) (0.607976 0.607976 -9.37938e+06)
3400          (-0.191995 -0.191995 -9.38284e+06) (-0.191995 -0.191995 -9.38284e+06) (-0.191995 -0.191995 -9.38284e+06) (0.0784238 0.0784238 -9.38225e+06) (0.0784238 0.0784238 -9.38225e+06) (0.241322 0.241322 -9.38134e+06) (0.241322 0.241322 -9.38134e+06) (0.365129 0.365129 -9.38029e+06) (0.365129 0.365129 -9.38029e+06) (0.607976 0.607976 -9.37938e+06) (0.607976 0.607976 -9.37938e+06)
3450          (-0.191995 -0.191995 -9.38284e+06) (-0.191995 -0.191995 -9.38284e+06) (-0.191995 -0.191995 -9.38284e+06) (0.0784238 0.0784238 -9.38225e+06) (0.0784238 0.0784238 -9.38225e+06) (0.241322 0.241322 -9.38134e+06) (0.241322 0.241322 -9.38134e+06) (0.365129 0.365129 -9.38029e+06) (0.365129 0.365129 -9.38029e+06) (0.607976 0.607976 -9.37938e+06) (0.607976 0.607976 -9.37938e+06)
3500          (-0.191995 -0.191995 -9.38284e+06) (-0.191995 -0.191995 -9.38284e+06) (-0.191995 -0.191995 -9.38284e+06) (0.0784238 0.0784238 -9.38225e+06) (0.0784238 0.0784238 -9.38225e+06) (0.241322 0.241322 -9.38134e+06) (0.241322 0.241322 -9.38134e+06) (0.365129 0.365129 -9.38029e+06) (0.365129 0.365129 -9.38029e+06) (0.607976 0.607976 -9.37938e+06) (0.607976 0.607976 -9.37938e+06)
3550          (-0.191995 -0.191995 -9.38284e+06) (-0.191995 -0.191995 -9.38284e+06) (-0.191995 -0.191995 -9.38284e+06) (0.0784238 0.0784238 -9.38225e+06) (0.0784238 0.0784238 -9.38225e+06) (0.241322 0.241322 -9.38134e+06) (0.241322 0.241322 -9.38134e+06) (0.365129 0.365129 -9.38029e+06) (0.365129 0.365129 -9.38029e+06) (0.607976 0.607976 -9.37938e+06) (0.607976 0.607976 -9.37938e+06)
3600          (-0.191995 -0.191995 -9.38284e+06) (-0.191995 -0.191995 -9.38284e+06) (-0.191995 -0.191995 -9.38284e+06) (0.0784238 0.0784238 -9.38225e+06) (0.0784238 0.0784238 -9.38225e+06) (0.241322 0.241322 -9.38134e+06) (0.241322 0.241322 -9.38134e+06) (0.365129 0.365129 -9.38029e+06) (0.365129 0.365129 -9.38029e+06) (0.607976 0.607976 -9.37938e+06) (0.607976 0.607976 -9.37938e+06)
3650          (-0.191995 -0.191995 -9.38284e+06) (-0.191995 -0.191995 -9.38284e+06) (-0.191995 -0.191995 -9.38284e+06) (0.0784238 0.0784238 -9.38225e+06) (0.0784238 0.0784238 -9.38225e+06) (0.241322 0.241322 -9.38134e+06) (0.241322 0.241322 -9.38134e+06) (0.365129 0.365129 -9.38029e+06) (0.365129 0.365129 -9.38029e+06) (0.607976 0.607976 -9.37938e+06) (0.607976 0.607976 -9.37938e+06)
3700          (-0.191995 -0.191995 -9.38284e+06) (-0.191995 -0.191995 -9.38284e+06) (-0.191995 -0.191995 -9.38284e+06) (0.0784238 0.0784238 -9.38225e+06) (0.0784238 0.0784238 -9.38225e+06) (0.241322 0.241322 -9.38134e+06) (0.241322 0.241322 -9.38134e+06) (0.365129 0.365129 -9.38029e+06) (0.365129 0.365129 -9.38029e+06) (0.607976 0.607976 -9.37938e+06) (0.607976 0.607976 -9.37938e+06)
3750          (-0.191995 -0.191995 -9.38284e+06) (-0.191995 -0.191995 -9.38284e+06) (-0.191995 -0.191995 -9.38284e+06) (0.0784238 0.0784238 -9.38225e+06) (0.0784238 0.0784238 -9.38225e+06) (0.241322 0.241322 -9.38134e+06) (0.241322 0.241322 -9.38134e+06) (0.365129 0.365129 -9.38029e+06) (0.365129 0.365129 -9.38029e+06) (0.607976 0.607976 -9.37938e+06) (0.607976 0.607976 -9.37938e+06)
3800          (-0.191995 -0.191995 -9.38284e+06) (-0.191995 -0.191995 -9.38284e+06) (-0.191995 -0.191995 -9.38284e+06) (0.0784238 0.0784238 -9.38225e+06) (0.0784238 0.0784238 -9.38225e+06) (0.241322 0.241322 -9.38134e+06) (0.241322 0.241322 -9.38134e+06) (0.365129 0.365129 -9.38029e+06) (0.365129 0.365129 -9.38029e+06) (0.607976 0.607976 -9.37938e+06) (0.607976 0.607976 -9.37938e+06)
3850          (-0.191995 -0.191995 -9.38284e+06) (-0.191995 -0.191995 -9.38284e+06) (-0.191995 -0.191995 -9.38284e+06) (0.0784238 0.0784238 -9.38225e+06) (0.0784238 0.0784238 -9.38225e+06) (0.241322 0.241322 -9.38134e+06) (0.241322 0.241322 -9.38134e+06) (0.365129 0.365129 -9.38029e+06) (0.365129 0.365129 -9.38029e+06) (0.607976 0.607976 -9.37938e+06) (0.607976 0.607976 -9.37938e+06)
3900          (-0.191995 -0.191995 -9.38284e+06) (-0.191995 -0.191995 -9.38284e+06) (-0.191995 -0.191995 -9.38284e+06) (0.0784238 0.0784238 -9.38225e+06) (0.0784238 0.0784238 -9.38225e+06) (0.241322 0.241322 -9.38134e+06) (0.241322 0.241322 -9.38134e+06) (0.365129 0.365129 -9.38029e+06) (0.365129 0.365129 -9.38029e+06) (0.607976 0.607976 -9.37938e+06) (0.607976 0.607976 -9.37938e+06)