# Probe 0 (0.0015 0.0015 0)
# Probe 1 (0.0015 0.0015 0.002)
# Probe 2 (0.0015 0.0015 0.004)
# Probe 3 (0.0015 0.0015 0.006)
# Probe 4 (0.0015 0.0015 0.008)
# Probe 5 (0.0015 0.0015 0.01)
# Probe 6 (0.0015 0.0015 0.012)
# Probe 7 (0.0015 0.0015 0.014)
# Probe 8 (0.0015 0.0015 0.016)
# Probe 9 (0.0015 0.0015 0.018)
# Probe 10 (0.0015 0.0015 0.02)
# Time        0             1             2             3             4             5             6             7             8             9             10           
50            (0.00476862 0.00476862 14865.7) (0.00476862 0.00476862 14865.7) (0.00476862 0.00476862 14865.7) (-0.00406495 -0.00406495 5948.2) (-0.00406495 -0.00406495 5948.2) (-0.00131209 -0.00131209 1549.52) (-0.00131209 -0.00131209 1549.52) (-0.00115849 -0.00115849 1188.57) (-0.00115849 -0.00115849 1188.57) (-0.000408447 -0.000408447 3421.4) (-0.000408447 -0.000408447 3421.4)
100           (0.0366776 0.0366776 12811.8) (0.0366776 0.0366776 12811.8) (0.0366776 0.0366776 12811.8) (-0.00329956 -0.00329956 7613.63) (-0.00329956 -0.00329956 7613.63) (-0.0194036 -0.0194036 3284.62) (-0.0194036 -0.0194036 3284.62) (-0.0131127 -0.0131127 2091.17) (-0.0131127 -0.0131127 2091.17) (-0.00159046 -0.00159046 3226.59) (-0.00159046 -0.00159046 3226.59)
150           (0.0223629 0.0223629 11245.5) (0.0223629 0.0223629 11245.5) (0.0223629 0.0223629 11245.5) (0.0060543 0.0060543 8055.61) (0.0060543 0.0060543 8055.61) (-0.0100347 -0.0100347 4587.08) (-0.0100347 -0.0100347 4587.08) (-0.00998993 -0.00998993 2939.03) (-0.00998993 -0.00998993 2939.03) (-0.00182446 -0.00182446 3232.5) (-0.00182446 -0.00182446 3232.5)
200           (0.0153208 0.0153208 10137.8) (0.0153208 0.0153208 10137.8) (0.0153208 0.0153208 10137.8) (0.00758515 0.00758515 8048.29) (0.00758515 0.00758515 8048.29) (-0.00450146 -0.00450146 5403.42) (-0.00450146 -0.00450146 5403.42) (-0.00766756 -0.00766756 3665.92) (-0.00766756 -0.00766756 3665.92) (-0.00244654 -0.00244654 3379.91) (-0.00244654 -0.00244654 3379.91)
250           (-0.0132231 -0.0132231 9345.55) (-0.0132231 -0.0132231 9345.55) (-0.0132231 -0.0132231 9345.55) (-0.00855656 -0.00855656 7894.13) (-0.00855656 -0.00855656 7894.13) (0.00136828 0.00136828 5879) (0.00136828 0.00136828 5879) (0.0060188 0.0060188 4243.25) (0.0060188 0.0060188 4243.25) (0.0027934 0.0027934 3611.93) (0.0027934 0.0027934 3611.93)
300           (-0.00868941 -0.00868941 8760.52) (-0.00868941 -0.00868941 8760.52) (-0.00868941 -0.00868941 8760.52) (-0.00668136 -0.00668136 7702.5) (-0.00668136 -0.00668136 7702.5) (-0.000556002 -0.000556002 6143.98) (-0.000556002 -0.000556002 6143.98) (0.00360309 0.00360309 4682.8) (0.00360309 0.00360309 4682.8) (0.00253106 0.00253106 3882.4) (0.00253106 0.00253106 3882.4)
350           (-0.00752912 -0.00752912 8314.45) (-0.00752912 -0.00752912 8314.45) (-0.00752912 -0.00752912 8314.45) (-0.00655502 -0.00655502 7513.09) (-0.00655502 -0.00655502 7513.09) (-0.00183727 -0.00183727 6284.25) (-0.00183727 -0.00183727 6284.25) (0.00248842 0.00248842 5012.07) (0.00248842 0.00248842 5012.07) (0.00276973 0.00276973 4160.22) (0.00276973 0.00276973 4160.22)
400           (0.0168712 0.0168712 7964.86) (0.0168712 0.0168712 7964.86) (0.0168712 0.0168712 7964.86) (0.0158671 0.0158671 7339.27) (0.0158671 0.0158671 7339.27) (0.00773184 0.00773184 6352.39) (0.00773184 0.00773184 6352.39) (-0.00186559 -0.00186559 5258.95) (-0.00186559 -0.00186559 5258.95) (-0.006674 -0.006674 4427.06) (-0.006674 -0.006674 4427.06)
450           (-0.00180889 -0.00180889 7684.77) (-0.00180889 -0.00180889 7684.77) (-0.00180889 -0.00180889 7684.77) (-0.00202515 -0.00202515 7184.64) (-0.00202515 -0.00202515 7184.64) (-0.00132542 -0.00132542 6379.67) (-0.00132542 -0.00132542 6379.67) (-0.000226232 -0.000226232 5445.97) (-0.000226232 -0.000226232 5445.97) (0.00047629 0.00047629 4673.39) (0.00047629 0.00047629 4673.39)
500           (-0.00289413 -0.00289413 7456.27) (-0.00289413 -0.00289413 7456.27) (-0.00289413 -0.00289413 7456.27) (-0.00353414 -0.00353414 7049.1) (-0.00353414 -0.00353414 7049.1) (-0.00254127 -0.00254127 6384.7) (-0.00254127 -0.00254127 6384.7) (-0.000244021 -0.000244021 5590.26) (-0.000244021 -0.000244021 5590.26) (0.00137852 0.00137852 4895.11) (0.00137852 0.00137852 4895.11)
550           (0.00526319 0.00526319 7267.42) (0.00526319 0.00526319 7267.42) (0.00526319 0.00526319 7267.42) (0.00552852 0.00552852 6931.42) (0.00552852 0.00552852 6931.42) (0.00379022 0.00379022 6378.19) (0.00379022 0.00379022 6378.19) (0.00113609 0.00113609 5703.59) (0.00113609 0.00113609 5703.59) (-0.00137362 -0.00137362 5091.35) (-0.00137362 -0.00137362 5091.35)
600           (0.00428318 0.00428318 7109.84) (0.00428318 0.00428318 7109.84) (0.00428318 0.00428318 7109.84) (0.00463665 0.00463665 6829.92) (0.00463665 0.00463665 6829.92) (0.00326495 0.00326495 6366.41) (0.00326495 0.00326495 6366.41) (0.000954323 0.000954323 5794.3) (0.000954323 0.000954323 5794.3) (-0.00110951 -0.00110951 5262.86) (-0.00110951 -0.00110951 5262.86)
650           (0.00343594 0.00343594 6977.46) (0.00343594 0.00343594 6977.46) (0.00343594 0.00343594 6977.46) (0.00382456 0.00382456 6742.73) (0.00382456 0.00382456 6742.73) (0.00277481 0.00277481 6352.85) (0.00277481 0.00277481 6352.85) (0.000861611 0.000861611 5868.18) (0.000861611 0.000861611 5868.18) (-0.000785653 -0.000785653 5411.47) (-0.000785653 -0.000785653 5411.47)
700           (0.00277963 0.00277963 6865.76) (0.00277963 0.00277963 6865.76) (0.00277963 0.00277963 6865.76) (0.00316462 0.00316462 6668.12) (0.00316462 0.00316462 6668.12) (0.0023541 0.0023541 6339.36) (0.0023541 0.0023541 6339.36) (0.000779831 0.000779831 5929.18) (0.000779831 0.000779831 5929.18) (-0.000537556 -0.000537556 5539.38) (-0.000537556 -0.000537556 5539.38)
750           (0.00227953 0.00227953 6771.28) (0.00227953 0.00227953 6771.28) (0.00227953 0.00227953 6771.28) (0.00263736 0.00263736 6604.44) (0.00263736 0.00263736 6604.44) (0.00199719 0.00199719 6326.86) (0.00199719 0.00199719 6326.86) (0.000693729 0.000693729 5980.02) (0.000693729 0.000693729 5980.02) (-0.000374456 -0.000374456 5648.93) (-0.000374456 -0.000374456 5648.93)
800           (0.00189236 0.00189236 6691.26) (0.00189236 0.00189236 6691.26) (0.00189236 0.00189236 6691.26) (0.0022122 0.0022122 6550.24) (0.0022122 0.0022122 6550.24) (0.0016945 0.0016945 6315.73) (0.0016945 0.0016945 6315.73) (0.00060615 0.00060615 6022.69) (0.00060615 0.00060615 6022.69) (-0.000273583 -0.000273583 5742.38) (-0.000273583 -0.000273583 5742.38)
850           (0.00158508 0.00158508 6623.46) (0.00158508 0.00158508 6623.46) (0.00158508 0.00158508 6623.46) (0.00186406 0.00186406 6504.2) (0.00186406 0.00186406 6504.2) (0.00143734 0.00143734 6306.06) (0.00143734 0.00143734 6306.06) (0.00052225 0.00052225 6058.65) (0.00052225 0.00052225 6058.65) (-0.000211701 -0.000211701 5821.87) (-0.000211701 -0.000211701 5821.87)
900           (0.00133543 0.00133543 6566.02) (0.00133543 0.00133543 6566.02) (0.00133543 0.00133543 6566.02) (0.00157506 0.00157506 6465.16) (0.00157506 0.00157506 6465.16) (0.00121856 0.00121856 6297.78) (0.00121856 0.00121856 6297.78) (0.000445532 0.000445532 6089.03) (0.000445532 0.000445532 6089.03) (-0.000172359 -0.000172359 5889.32) (-0.000172359 -0.000172359 5889.32)
950           (0.00112891 0.00112891 6517.38) (0.00112891 0.00112891 6517.38) (0.00112891 0.00112891 6517.38) (0.00133275 0.00133275 6432.1) (0.00133275 0.00133275 6432.1) (0.00103235 0.00103235 6290.75) (0.00103235 0.00103235 6290.75) (0.000377582 0.000377582 6114.72) (0.000377582 0.000377582 6114.72) (-0.000145486 -0.000145486 5946.46) (-0.000145486 -0.000145486 5946.46)
1000          (0.000955906 0.000955906 6476.22) (0.000955906 0.000955906 6476.22) (0.000955906 0.000955906 6476.22) (0.00112826 0.00112826 6404.15) (0.00112826 0.00112826 6404.15) (0.00087392 0.00087392 6284.83) (0.00087392 0.00087392 6284.83) (0.000318645 0.000318645 6136.45) (0.000318645 0.000318645 6136.45) (-0.00012543 -0.00012543 5994.79) (-0.00012543 -0.00012543 5994.79)
1050          (0.00587067 0.00587067 6441.41) (0.00587067 0.00587067 6441.41) (0.00587067 0.00587067 6441.41) (0.00586307 0.00586307 6380.53) (0.00586307 0.00586307 6380.53) (0.00352713 0.00352713 6279.85) (0.00352713 0.00352713 6279.85) (-0.000299262 -0.000299262 6154.83) (-0.000299262 -0.000299262 6154.83) (-0.0039192 -0.0039192 6035.62) (-0.0039192 -0.0039192 6035.62)
1100          (0.00504617 0.00504617 6412) (0.00504617 0.00504617 6412) (0.00504617 0.00504617 6412) (0.00503612 0.00503612 6360.59) (0.00503612 0.00503612 6360.59) (0.00301198 0.00301198 6275.67) (0.00301198 0.00301198 6275.67) (-0.000285828 -0.000285828 6170.37) (-0.000285828 -0.000285828 6170.37) (-0.00336466 -0.00336466 6070.09) (-0.00336466 -0.00336466 6070.09)
1150          (0.0042578 0.0042578 6387.15) (0.0042578 0.0042578 6387.15) (0.0042578 0.0042578 6387.15) (0.00424588 0.00424588 6343.77) (0.00424588 0.00424588 6343.77) (0.00253647 0.00253647 6272.18) (0.00253647 0.00253647 6272.18) (-0.000245949 -0.000245949 6183.51) (-0.000245949 -0.000245949 6183.51) (-0.00285464 -0.00285464 6099.17) (-0.00285464 -0.00285464 6099.17)
1200          (0.00358997 0.00358997 6366.18) (0.00358997 0.00358997 6366.18) (0.00358997 0.00358997 6366.18) (0.00357727 0.00357727 6329.59) (0.00357727 0.00357727 6329.59) (0.00213402 0.00213402 6269.25) (0.00213402 0.00213402 6269.25) (-0.000210395 -0.000210395 6194.61) (-0.000210395 -0.000210395 6194.61) (-0.00240883 -0.00240883 6123.69) (-0.00240883 -0.00240883 6123.69)
1250          (0.00302554 0.00302554 6348.48) (0.00302554 0.00302554 6348.48) (0.00302554 0.00302554 6348.48) (0.00301273 0.00301273 6317.63) (0.00301273 0.00301273 6317.63) (0.00179486 0.00179486 6266.81) (0.00179486 0.00179486 6266.81) (-0.000179606 -0.000179606 6203.98) (-0.000179606 -0.000179606 6203.98) (-0.00202949 -0.00202949 6144.34) (-0.00202949 -0.00202949 6144.34)
1300          (0.00254887 0.00254887 6333.56) (0.00254887 0.00254887 6333.56) (0.00254887 0.00254887 6333.56) (0.00253654 0.00253654 6307.57) (0.00253654 0.00253654 6307.57) (0.00150941 0.00150941 6264.76) (0.00150941 0.00150941 6264.76) (-0.000153001 -0.000153001 6211.89) (-0.000153001 -0.000153001 6211.89) (-0.00170887 -0.00170887 6161.74) (-0.00170887 -0.00170887 6161.74)
1350          (0.00214662 0.00214662 6320.99) (0.00214662 0.00214662 6320.99) (0.00214662 0.00214662 6320.99) (0.00213511 0.00213511 6299.09) (0.00213511 0.00213511 6299.09) (0.00126923 0.00126923 6263.04) (0.00126923 0.00126923 6263.04) (-0.000130102 -0.000130102 6218.56) (-0.000130102 -0.000130102 6218.56) (-0.00143844 -0.00143844 6176.39) (-0.00143844 -0.00143844 6176.39)
1400          (0.00180737 0.00180737 6310.39) (0.00180737 0.00180737 6310.39) (0.00180737 0.00180737 6310.39) (0.00179686 0.00179686 6291.95) (0.00179686 0.00179686 6291.95) (0.00106722 0.00106722 6261.61) (0.00106722 0.00106722 6261.61) (-0.000110447 -0.000110447 6224.18) (-0.000110447 -0.000110447 6224.18) (-0.00121055 -0.00121055 6188.73) (-0.00121055 -0.00121055 6188.73)
1450          (0.00152139 0.00152139 6301.47) (0.00152139 0.00152139 6301.47) (0.00152139 0.00152139 6301.47) (0.00151196 0.00151196 6285.94) (0.00151196 0.00151196 6285.94) (0.00089733 0.00089733 6260.4) (0.00089733 0.00089733 6260.4) (-9.36261e-05 -9.36261e-05 6228.92) (-9.36261e-05 -9.36261e-05 6228.92) (-0.0010186 -0.0010186 6199.11) (-0.0010186 -0.0010186 6199.11)
1500          (-0.00451005 -0.00451005 6293.97) (-0.00451005 -0.00451005 6293.97) (-0.00451005 -0.00451005 6293.97) (-0.0051529 -0.0051529 6280.89) (-0.0051529 -0.0051529 6280.89) (-0.00400328 -0.00400328 6259.39) (-0.00400328 -0.00400328 6259.39) (-0.00143632 -0.00143632 6232.9) (-0.00143632 -0.00143632 6232.9) (0.00177986 0.00177986 6207.83) (0.00177986 0.00177986 6207.83)
1550          (-0.00140151 -0.00140151 6287.64) (-0.00140151 -0.00140151 6287.64) (-0.00140151 -0.00140151 6287.64) (-0.00163489 -0.00163489 6276.63) (-0.00163489 -0.00163489 6276.63) (-0.00131376 -0.00131376 6258.54) (-0.00131376 -0.00131376 6258.54) (-0.000534092 -0.000534092 6236.27) (-0.000534092 -0.000534092 6236.27) (0.000504348 0.000504348 6215.19) (0.000504348 0.000504348 6215.19)
1600          (-0.00106976 -0.00106976 6282.31) (-0.00106976 -0.00106976 6282.31) (-0.00106976 -0.00106976 6282.31) (-0.00125293 -0.00125293 6273.05) (-0.00125293 -0.00125293 6273.05) (-0.0010148 -0.0010148 6257.83) (-0.0010148 -0.0010148 6257.83) (-0.000425953 -0.000425953 6239.1) (-0.000425953 -0.000425953 6239.1) (0.000382452 0.000382452 6221.38) (0.000382452 0.000382452 6221.38)
1650          (-0.000896973 -0.000896973 6277.83) (-0.000896973 -0.000896973 6277.83) (-0.000896973 -0.000896973 6277.83) (-0.00104939 -0.00104939 6270.04) (-0.00104939 -0.00104939 6270.04) (-0.000849745 -0.000849745 6257.24) (-0.000849745 -0.000849745 6257.24) (-0.000356938 -0.000356938 6241.48) (-0.000356938 -0.000356938 6241.48) (0.000320319 0.000320319 6226.58) (0.000320319 0.000320319 6226.58)
1700          (-0.000754471 -0.000754471 6274.06) (-0.000754471 -0.000754471 6274.06) (-0.000754471 -0.000754471 6274.06) (-0.000883035 -0.000883035 6267.5) (-0.000883035 -0.000883035 6267.5) (-0.000714647 -0.000714647 6256.74) (-0.000714647 -0.000714647 6256.74) (-0.00029974 -0.00029974 6243.49) (-0.00029974 -0.00029974 6243.49) (0.000269587 0.000269587 6230.96) (0.000269587 0.000269587 6230.96)
1750          (-0.000634945 -0.000634945 6270.89) (-0.000634945 -0.000634945 6270.89) (-0.000634945 -0.000634945 6270.89) (-0.000742707 -0.000742707 6265.37) (-0.000742707 -0.000742707 6265.37) (-0.000600922 -0.000600922 6256.32) (-0.000600922 -0.000600922 6256.32) (-0.00025194 -0.00025194 6245.17) (-0.00025194 -0.00025194 6245.17) (0.000226808 0.000226808 6234.64) (0.000226808 0.000226808 6234.64)
1800          (-0.000534169 -0.000534169 6268.22) (-0.000534169 -0.000534169 6268.22) (-0.000534169 -0.000534169 6268.22) (-0.000624894 -0.000624894 6263.58) (-0.000624894 -0.000624894 6263.58) (-0.00050546 -0.00050546 6255.96) (-0.00050546 -0.00050546 6255.96) (-0.000211749 -0.000211749 6246.59) (-0.000211749 -0.000211749 6246.59) (0.00019087 0.00019087 6237.74) (0.00019087 0.00019087 6237.74)
1850          (-0.00293967 -0.00293967 6265.97) (-0.00293967 -0.00293967 6265.97) (-0.00293967 -0.00293967 6265.97) (-0.00317604 -0.00317604 6262.07) (-0.00317604 -0.00317604 6262.07) (-0.00225145 -0.00225145 6255.67) (-0.00225145 -0.00225145 6255.67) (-0.000485495 -0.000485495 6247.79) (-0.000485495 -0.000485495 6247.79) (0.00152261 0.00152261 6240.35) (0.00152261 0.00152261 6240.35)
1900          (-0.00139853 -0.00139853 6264.08) (-0.00139853 -0.00139853 6264.08) (-0.00139853 -0.00139853 6264.08) (-0.00155612 -0.00155612 6260.8) (-0.00155612 -0.00155612 6260.8) (-0.00113728 -0.00113728 6255.41) (-0.00113728 -0.00113728 6255.41) (-0.000246152 -0.000246152 6248.8) (-0.000246152 -0.000246152 6248.8) (0.000834705 0.000834705 6242.55) (0.000834705 0.000834705 6242.55)
1950          (0.000160466 0.000160466 6262.5) (0.000160466 0.000160466 6262.5) (0.000160466 0.000160466 6262.5) (-0.000149714 -0.000149714 6259.74) (-0.000149714 -0.000149714 6259.74) (-0.000473166 -0.000473166 6255.2) (-0.000473166 -0.000473166 6255.2) (-0.000685797 -0.000685797 6249.64) (-0.000685797 -0.000685797 6249.64) (-0.000631402 -0.000631402 6244.38) (-0.000631402 -0.000631402 6244.38)
2000          (-0.0015172 -0.0015172 6261.17) (-0.0015172 -0.0015172 6261.17) (-0.0015172 -0.0015172 6261.17) (-0.00178657 -0.00178657 6258.84) (-0.00178657 -0.00178657 6258.84) (-0.0014561 -0.0014561 6255.03) (-0.0014561 -0.0014561 6255.03) (-0.000662733 -0.000662733 6250.34) (-0.000662733 -0.000662733 6250.34) (0.000356799 0.000356799 6245.92) (0.000356799 0.000356799 6245.92)
2050          (0.000504074 0.000504074 6260.04) (0.000504074 0.000504074 6260.04) (0.000504074 0.000504074 6260.04) (0.000785378 0.000785378 6258.08) (0.000785378 0.000785378 6258.08) (0.000795029 0.000795029 6254.88) (0.000795029 0.000795029 6254.88) (0.000564464 0.000564464 6250.94) (0.000564464 0.000564464 6250.94) (0.000190562 0.000190562 6247.23) (0.000190562 0.000190562 6247.23)
2100          (0.000252201 0.000252201 6259.11) (0.000252201 0.000252201 6259.11) (0.000252201 0.000252201 6259.11) (-9.69103e-05 -9.69103e-05 6257.46) (-9.69103e-05 -9.69103e-05 6257.46) (-0.000485275 -0.000485275 6254.76) (-0.000485275 -0.000485275 6254.76) (-0.000798013 -0.000798013 6251.44) (-0.000798013 -0.000798013 6251.44) (-0.000854838 -0.000854838 6248.3) (-0.000854838 -0.000854838 6248.3)
2150          (0.00111514 0.00111514 6258.31) (0.00111514 0.00111514 6258.31) (0.00111514 0.00111514 6258.31) (0.00141769 0.00141769 6256.93) (0.00141769 0.00141769 6256.93) (0.00118594 0.00118594 6254.65) (0.00118594 0.00118594 6254.65) (0.000612309 0.000612309 6251.86) (0.000612309 0.000612309 6251.86) (-7.11757e-05 -7.11757e-05 6249.23) (-7.11757e-05 -7.11757e-05 6249.23)
2200          (0.000153534 0.000153534 6257.66) (0.000153534 0.000153534 6257.66) (0.000153534 0.000153534 6257.66) (-7.06344e-05 -7.06344e-05 6256.49) (-7.06344e-05 -7.06344e-05 6256.49) (-0.00029905 -0.00029905 6254.57) (-0.00029905 -0.00029905 6254.57) (-0.00054882 -0.00054882 6252.21) (-0.00054882 -0.00054882 6252.21) (-0.000681125 -0.000681125 6249.99) (-0.000681125 -0.000681125 6249.99)
2250          (0.00100437 0.00100437 6257.1) (0.00100437 0.00100437 6257.1) (0.00100437 0.00100437 6257.1) (0.0010789 0.0010789 6256.11) (0.0010789 0.0010789 6256.11) (0.000736947 0.000736947 6254.49) (0.000736947 0.000736947 6254.49) (0.000290367 0.000290367 6252.51) (0.000290367 0.000290367 6252.51) (-0.000111414 -0.000111413 6250.65) (-0.000111414 -0.000111413 6250.65)
2300          (0.00190175 0.00190175 6256.73) (0.00190175 0.00190175 6256.73) (0.00190175 0.00190175 6256.73) (0.00210142 0.00210142 6255.87) (0.00210142 0.00210142 6255.87) (0.00150597 0.00150597 6254.45) (0.00150597 0.00150597 6254.45) (0.000491924 0.000491924 6252.7) (0.000491924 0.000491924 6252.7) (-0.000583935 -0.000583935 6251.07) (-0.000583935 -0.000583935 6251.07)
2350          (0.00013465 0.00013465 6256.28) (0.00013465 0.00013465 6256.28) (0.00013465 0.00013465 6256.28) (-8.03792e-05 -8.03792e-05 6255.58) (-8.03792e-05 -8.03792e-05 6255.58) (-0.000227754 -0.000227754 6254.4) (-0.000227754 -0.000227754 6254.4) (-0.000385214 -0.000385214 6252.94) (-0.000385214 -0.000385214 6252.94) (-0.000555014 -0.000555014 6251.57) (-0.000555014 -0.000555014 6251.57)
2400          (0.000187991 0.000187991 6256.03) (0.000187991 0.000187991 6256.03) (0.000187991 0.000187991 6256.03) (-1.74427e-05 -1.74427e-05 6255.41) (-1.74427e-05 -1.74427e-05 6255.41) (-0.000158673 -0.000158673 6254.37) (-0.000158673 -0.000158673 6254.37) (-0.000329379 -0.000329379 6253.08) (-0.000329379 -0.000329379 6253.08) (-0.000561644 -0.000561644 6251.87) (-0.000561644 -0.000561644 6251.87)
2450          (0.000634228 0.000634228 6255.7) (0.000634228 0.000634228 6255.7) (0.000634228 0.000634228 6255.7) (0.000808285 0.000808285 6255.18) (0.000808285 0.000808285 6255.18) (0.000544674 0.000544674 6254.31) (0.000544674 0.000544674 6254.31) (0.000127688 0.000127688 6253.25) (0.000127688 0.000127688 6253.25) (-7.74912e-05 -7.74912e-05 6252.26) (-7.74912e-05 -7.74912e-05 6252.26)
2500          (0.000137538 0.000137538 6255.59) (0.000137538 0.000137538 6255.59) (0.000137538 0.000137538 6255.59) (-0.000106736 -0.000106736 6255.1) (-0.000106736 -0.000106736 6255.1) (-0.000222274 -0.000222274 6254.29) (-0.000222274 -0.000222274 6254.29) (-0.00030219 -0.00030219 6253.31) (-0.00030219 -0.00030219 6253.31) (-0.000461336 -0.000461336 6252.4) (-0.000461336 -0.000461336 6252.4)
2550          (0.000118001 0.000118001 6255.39) (0.000118001 0.000118001 6255.39) (0.000118001 0.000118001 6255.39) (-0.000103328 -0.000103328 6254.95) (-0.000103328 -0.000103328 6254.95) (-0.000230486 -0.000230486 6254.25) (-0.000230486 -0.000230486 6254.25) (-0.000302375 -0.000302375 6253.41) (-0.000302375 -0.000302375 6253.41) (-0.000434732 -0.000434732 6252.64) (-0.000434732 -0.000434732 6252.64)
2600          (0.000702327 0.000702327 6255.29) (0.000702327 0.000702327 6255.29) (0.000702327 0.000702327 6255.29) (0.00093967 0.00093967 6254.87) (0.00093967 0.00093967 6254.87) (0.000724071 0.000724071 6254.22) (0.000724071 0.000724071 6254.22) (0.000211193 0.000211193 6253.45) (0.000211193 0.000211193 6253.45) (-0.000191546 -0.000191546 6252.78) (-0.000191546 -0.000191546 6252.78)
2650          (0.000127996 0.000127996 6255.2) (0.000127996 0.000127996 6255.2) (0.000127996 0.000127996 6255.2) (-5.22823e-05 -5.22823e-05 6254.81) (-5.22823e-05 -5.22823e-05 6254.81) (-0.00016088 -0.00016088 6254.2) (-0.00016088 -0.00016088 6254.2) (-0.000243418 -0.000243418 6253.5) (-0.000243418 -0.000243418 6253.5) (-0.000405316 -0.000405316 6252.89) (-0.000405316 -0.000405316 6252.89)
2700          (0.000127996 0.000127996 6255.2) (0.000127996 0.000127996 6255.2) (0.000127996 0.000127996 6255.2) (-5.22823e-05 -5.22823e-05 6254.81) (-5.22823e-05 -5.22823e-05 6254.81) (-0.00016088 -0.00016088 6254.2) (-0.00016088 -0.00016088 6254.2) (-0.000243418 -0.000243418 6253.5) (-0.000243418 -0.000243418 6253.5) (-0.000405316 -0.000405316 6252.89) (-0.000405316 -0.000405316 6252.89)
2750          (0.000127996 0.000127996 6255.2) (0.000127996 0.000127996 6255.2) (0.000127996 0.000127996 6255.2) (-5.22823e-05 -5.22823e-05 6254.81) (-5.22823e-05 -5.22823e-05 6254.81) (-0.00016088 -0.00016088 6254.2) (-0.00016088 -0.00016088 6254.2) (-0.000243418 -0.000243418 6253.5) (-0.000243418 -0.000243418 6253.5) (-0.000405316 -0.000405316 6252.89) (-0.000405316 -0.000405316 6252.89)
2800          (0.000127996 0.000127996 6255.2) (0.000127996 0.000127996 6255.2) (0.000127996 0.000127996 6255.2) (-5.22823e-05 -5.22823e-05 6254.81) (-5.22823e-05 -5.22823e-05 6254.81) (-0.00016088 -0.00016088 6254.2) (-0.00016088 -0.00016088 6254.2) (-0.000243418 -0.000243418 6253.5) (-0.000243418 -0.000243418 6253.5) (-0.000405316 -0.000405316 6252.89) (-0.000405316 -0.000405316 6252.89)
2850          (0.000127996 0.000127996 6255.2) (0.000127996 0.000127996 6255.2) (0.000127996 0.000127996 6255.2) (-5.22823e-05 -5.22823e-05 6254.81) (-5.22823e-05 -5.22823e-05 6254.81) (-0.00016088 -0.00016088 6254.2) (-0.00016088 -0.00016088 6254.2) (-0.000243418 -0.000243418 6253.5) (-0.000243418 -0.000243418 6253.5) (-0.000405316 -0.000405316 6252.89) (-0.000405316 -0.000405316 6252.89)
2900          (0.000127996 0.000127996 6255.2) (0.000127996 0.000127996 6255.2) (0.000127996 0.000127996 6255.2) (-5.22823e-05 -5.22823e-05 6254.81) (-5.22823e-05 -5.22823e-05 6254.81) (-0.00016088 -0.00016088 6254.2) (-0.00016088 -0.00016088 6254.2) (-0.000243418 -0.000243418 6253.5) (-0.000243418 -0.000243418 6253.5) (-0.000405316 -0.000405316 6252.89) (-0.000405316 -0.000405316 6252.89)
2950          (0.000127996 0.000127996 6255.2) (0.000127996 0.000127996 6255.2) (0.000127996 0.000127996 6255.2) (-5.22823e-05 -5.22823e-05 6254.81) (-5.22823e-05 -5.22823e-05 6254.81) (-0.00016088 -0.00016088 6254.2) (-0.00016088 -0.00016088 6254.2) (-0.000243418 -0.000243418 6253.5) (-0.000243418 -0.000243418 6253.5) (-0.000405316 -0.000405316 6252.89) (-0.000405316 -0.000405316 6252.89)
3000          (0.000127996 0.000127996 6255.2) (0.000127996 0.000127996 6255.2) (0.000127996 0.000127996 6255.2) (-5.22823e-05 -5.22823e-05 6254.81) (-5.22823e-05 -5.22823e-05 6254.81) (-0.00016088 -0.00016088 6254.2) (-0.00016088 -0.00016088 6254.2) (-0.000243418 -0.000243418 6253.5) (-0.000243418 -0.000243418 6253.5) (-0.000405316 -0.000405316 6252.89) (-0.000405316 -0.000405316 6252.89)
3050          (0.000127996 0.000127996 6255.2) (0.000127996 0.000127996 6255.2) (0.000127996 0.000127996 6255.2) (-5.22823e-05 -5.22823e-05 6254.81) (-5.22823e-05 -5.22823e-05 6254.81) (-0.00016088 -0.00016088 6254.2) (-0.00016088 -0.00016088 6254.2) (-0.000243418 -0.000243418 6253.5) (-0.000243418 -0.000243418 6253.5) (-0.000405316 -0.000405316 6252.89) (-0.000405316 -0.000405316 6252.89)
3100          (0.000127996 0.000127996 6255.2) (0.000127996 0.000127996 6255.2) (0.000127996 0.000127996 6255.2) (-5.22823e-05 -5.22823e-05 6254.81) (-5.22823e-05 -5.22823e-05 6254.81) (-0.00016088 -0.00016088 6254.2) (-0.00016088 -0.00016088 6254.2) (-0.000243418 -0.000243418 6253.5) (-0.000243418 -0.000243418 6253.5) (-0.000405316 -0.000405316 6252.89) (-0.000405316 -0.000405316 6252.89)
3150          (0.000127996 0.000127996 6255.2) (0.000127996 0.000127996 6255.2) (0.000127996 0.000127996 6255.2) (-5.22823e-05 -5.22823e-05 6254.81) (-5.22823e-05 -5.22823e-05 6254.81) (-0.00016088 -0.00016088 6254.2) (-0.00016088 -0.00016088 6254.2) (-0.000243418 -0.000243418 6253.5) (-0.000243418 -0.000243418 6253.5) (-0.000405316 -0.000405316 6252.89) (-0.000405316 -0.000405316 6252.89)
3200          (0.000127996 0.000127996 6255.2) (0.000127996 0.000127996 6255.2) (0.000127996 0.000127996 6255.2) (-5.22823e-05 -5.22823e-05 6254.81) (-5.22823e-05 -5.22823e-05 6254.81) (-0.00016088 -0.00016088 6254.2) (-0.00016088 -0.00016088 6254.2) (-0.000243418 -0.000243418 6253.5) (-0.000243418 -0.000243418 6253.5) (-0.000405316 -0.000405316 6252.89) (-0.000405316 -0.000405316 6252.89)
3250          (0.000127996 0.000127996 6255.2) (0.000127996 0.000127996 6255.2) (0.000127996 0.000127996 6255.2) (-5.22823e-05 -5.22823e-05 6254.81) (-5.22823e-05 -5.22823e-05 6254.81) (-0.00016088 -0.00016088 6254.2) (-0.00016088 -0.00016088 6254.2) (-0.000243418 -0.000243418 6253.5) (-0.000243418 -0.000243418 6253.5) (-0.000405316 -0.000405316 6252.89) (-0.000405316 -0.000405316 6252.89)
3300          (0.000127996 0.000127996 6255.2) (0.000127996 0.000127996 6255.2) (0.000127996 0.000127996 6255.2) (-5.22823e-05 -5.22823e-05 6254.81) (-5.22823e-05 -5.22823e-05 6254.81) (-0.00016088 -0.00016088 6254.2) (-0.00016088 -0.00016088 6254.2) (-0.000243418 -0.000243418 6253.5) (-0.000243418 -0.000243418 6253.5) (-0.000405316 -0.000405316 6252.89) (-0.000405316 -0.000405316 6252.89)
3350          (0.000127996 0.000127996 6255.2) (0.000127996 0.000127996 6255.2) (0.000127996 0.000127996 6255.2) (-5.22823e-05 -5.22823e-05 6254.81) (-5.22823e-05 -5.22823e-05 6254.81) (-0.00016088 -0.00016088 6254.2) (-0.00016088 -0.00016088 6254.2) (-0.000243418 -0.000243418 6253.5) (-0.000243418 -0.000243418 6253.5) (-0.000405316 -0.000405316 6252.89) (-0.000405316 -0.000405316 6252.89)
3400          (0.000127996 0.000127996 6255.2) (0.000127996 0.000127996 6255.2) (0.000127996 0.000127996 6255.2) (-5.22823e-05 -5.22823e-05 6254.81) (-5.22823e-05 -5.22823e-05 6254.81) (-0.00016088 -0.00016088 6254.2) (-0.00016088 -0.00016088 6254.2) (-0.000243418 -0.000243418 6253.5) (-0.000243418 -0.000243418 6253.5) (-0.000405316 -0.000405316 6252.89) (-0.000405316 -0.000405316 6252.89)
3450          (0.000127996 0.000127996 6255.2) (0.000127996 0.000127996 6255.2) (0.000127996 0.000127996 6255.2) (-5.22823e-05 -5.22823e-05 6254.81) (-5.22823e-05 -5.22823e-05 6254.81) (-0.00016088 -0.00016088 6254.2) (-0.00016088 -0.00016088 6254.2) (-0.000243418 -0.000243418 6253.5) (-0.000243418 -0.000243418 6253.5) (-0.000405316 -0.000405316 6252.89) (-0.000405316 -0.000405316 6252.89)
3500          (0.000127996 0.000127996 6255.2) (0.000127996 0.000127996 6255.2) (0.000127996 0.000127996 6255.2) (-5.22823e-05 -5.22823e-05 6254.81) (-5.22823e-05 -5.22823e-05 6254.81) (-0.00016088 -0.00016088 6254.2) (-0.00016088 -0.00016088 6254.2) (-0.000243418 -0.000243418 6253.5) (-0.000243418 -0.000243418 6253.5) (-0.000405316 -0.000405316 6252.89) (-0.000405316 -0.000405316 6252.89)
3550          (0.000127996 0.000127996 6255.2) (0.000127996 0.000127996 6255.2) (0.000127996 0.000127996 6255.2) (-5.22823e-05 -5.22823e-05 6254.81) (-5.22823e-05 -5.22823e-05 6254.81) (-0.00016088 -0.00016088 6254.2) (-0.00016088 -0.00016088 6254.2) (-0.000243418 -0.000243418 6253.5) (-0.000243418 -0.000243418 6253.5) (-0.000405316 -0.000405316 6252.89) (-0.000405316 -0.000405316 6252.89)
3600          (0.000127996 0.000127996 6255.2) (0.000127996 0.000127996 6255.2) (0.000127996 0.000127996 6255.2) (-5.22823e-05 -5.22823e-05 6254.81) (-5.22823e-05 -5.22823e-05 6254.81) (-0.00016088 -0.00016088 6254.2) (-0.00016088 -0.00016088 6254.2) (-0.000243418 -0.000243418 6253.5) (-0.000243418 -0.000243418 6253.5) (-0.000405316 -0.000405316 6252.89) (-0.000405316 -0.000405316 6252.89)
3650          (0.000127996 0.000127996 6255.2) (0.000127996 0.000127996 6255.2) (0.000127996 0.000127996 6255.2) (-5.22823e-05 -5.22823e-05 6254.81) (-5.22823e-05 -5.22823e-05 6254.81) (-0.00016088 -0.00016088 6254.2) (-0.00016088 -0.00016088 6254.2) (-0.000243418 -0.000243418 6253.5) (-0.000243418 -0.000243418 6253.5) (-0.000405316 -0.000405316 6252.89) (-0.000405316 -0.000405316 6252.89)
3700          (0.000127996 0.000127996 6255.2) (0.000127996 0.000127996 6255.2) (0.000127996 0.000127996 6255.2) (-5.22823e-05 -5.22823e-05 6254.81) (-5.22823e-05 -5.22823e-05 6254.81) (-0.00016088 -0.00016088 6254.2) (-0.00016088 -0.00016088 6254.2) (-0.000243418 -0.000243418 6253.5) (-0.000243418 -0.000243418 6253.5) (-0.000405316 -0.000405316 6252.89) (-0.000405316 -0.000405316 6252.89)
3750          (0.000127996 0.000127996 6255.2) (0.000127996 0.000127996 6255.2) (0.000127996 0.000127996 6255.2) (-5.22823e-05 -5.22823e-05 6254.81) (-5.22823e-05 -5.22823e-05 6254.81) (-0.00016088 -0.00016088 6254.2) (-0.00016088 -0.00016088 6254.2) (-0.000243418 -0.000243418 6253.5) (-0.000243418 -0.000243418 6253.5) (-0.000405316 -0.000405316 6252.89) (-0.000405316 -0.000405316 6252.89)
3800          (0.000127996 0.000127996 6255.2) (0.000127996 0.000127996 6255.2) (0.000127996 0.000127996 6255.2) (-5.22823e-05 -5.22823e-05 6254.81) (-5.22823e-05 -5.22823e-05 6254.81) (-0.00016088 -0.00016088 6254.2) (-0.00016088 -0.00016088 6254.2) (-0.000243418 -0.000243418 6253.5) (-0.000243418 -0.000243418 6253.5) (-0.000405316 -0.000405316 6252.89) (-0.000405316 -0.000405316 6252.89)