ITEM: TIMESTEP
5000
ITEM: NUMBER OF ATOMS
4860
ITEM: BOX BOUNDS ff ff ff
0 0.003
0 0.003
0 0.02
ITEM: ATOMS x y z f_Temp[0] 
0.000186366 0.000248828 0.000318811 982.046 
0.00029864 0.000245256 8.36095e-05 984.197 
0.000186911 0.000420542 0.000334726 982.083 
0.00050427 0.000271496 0.000248933 983.16 
0.000974258 0.00035646 0.000190185 983.908 
0.0010394 0.000146191 0.000220673 983.147 
0.00118095 0.000223301 0.00012192 984.623 
0.000942127 0.000334328 0.000368927 981.938 
0.00141496 0.000203667 0.000238934 983.66 
0.00186853 0.000385378 0.000272466 983.765 
0.00235761 0.000408402 0.000135071 984.85 
0.00261803 0.000184032 0.000131801 984.297 
0.00267443 0.000139766 0.000311157 982.783 
0.00026833 0.000827695 0.000414885 981.934 
0.000639065 0.000762365 0.000412342 982.82 
0.000756508 0.000626349 0.000364223 983.313 
0.000449483 0.000461954 0.000421263 982.312 
0.00125381 0.000741301 0.000261749 985.201 
0.000886629 0.000572441 0.000120347 985.659 
0.00100301 0.000581011 0.000298929 983.372 
0.00129788 0.000509076 0.00030206 984.083 
0.00161526 0.000655445 0.000385275 983.899 
0.00168166 0.000605463 0.00010873 986.301 
0.00137126 0.000780393 0.000390109 983.752 
0.00207793 0.00073773 0.000205458 985.634 
0.00224893 0.000748797 0.000206481 985.898 
0.00267588 0.000579404 0.000292279 983.736 
0.000337074 0.001207 0.000367367 982.742 
0.000198911 0.00110347 0.000323832 982.734 
0.000315643 0.0010044 0.000230174 983.461 
0.000788655 0.000927296 0.000410164 982.992 
0.000792057 0.00109883 0.000169713 985.995 
0.000559466 0.000939967 0.000126853 985.53 
0.000449701 0.00112953 0.000255956 984.027 
0.00110173 0.000857681 0.000301974 984.625 
0.00103285 0.00114042 0.000213648 985.835 
0.00120277 0.000883919 0.000154712 986.493 
0.00128971 0.00114935 0.000385603 983.872 
0.00144196 0.00095264 8.60022e-05 987.44 
0.00207741 0.0010908 0.000211599 986.226 
0.00192015 0.000956747 0.000330517 984.767 
0.00207044 0.000910515 0.000166116 986.669 
0.00177933 0.00122735 0.00014647 986.882 
0.00217915 0.00104332 0.000346351 984.623 
0.00265896 0.00115131 0.000320667 983.905 
0.000170015 0.00144761 0.000194333 984.168 
0.000304256 0.00162307 0.000116559 985.289 
0.000424371 0.00139621 0.000277229 984.253 
0.00071496 0.00132695 0.000317374 984.711 
0.000947738 0.00162504 0.000297997 984.993 
0.00112141 0.00153579 0.000313238 984.796 
0.00170921 0.00166984 0.000196981 986.02 
0.00135828 0.00162147 0.000159528 986.519 
0.00151767 0.00149384 0.000202205 985.974 
0.00209599 0.00137925 0.000232937 985.907 
0.00253742 0.00146421 0.000169649 985.374 
0.00215063 0.00163093 0.000266289 985.364 
0.00277752 0.0017084 0.000149953 984.62 
0.00280373 0.00134069 0.00039783 982.818 
0.0028075 0.00163182 0.000339412 983.091 
0.000273747 0.00186244 0.000288539 983.394 
0.00013112 0.00172964 0.000267336 983.52 
0.000727479 0.0017457 0.000341657 984.482 
0.000454402 0.00214107 8.78077e-05 985.899 
0.000560067 0.00205129 0.000357641 983.175 
0.000936862 0.00183317 8.81325e-05 987.465 
0.00125405 0.00186905 0.000278639 985.292 
0.00111787 0.00211019 0.000108186 987.183 
0.00143129 0.00176962 0.000190669 986.186 
0.00141329 0.0021184 0.000179757 986.279 
0.00212102 0.00191777 0.000237619 985.538 
0.0028309 0.00190885 0.000350857 982.767 
0.00267453 0.00190171 0.00011587 985.107 
0.000301454 0.00254305 0.000229934 983.862 
0.000160613 0.00242899 0.000374225 982.683 
0.000400508 0.00233099 0.000163952 984.694 
0.000661467 0.00227298 0.000364282 984.037 
0.000790875 0.00223764 0.000193106 986.046 
0.00110451 0.00253412 0.00012779 985.648 
0.000934753 0.00238579 0.000251951 985.184 
0.00127569 0.00245327 0.000276091 984.555 
0.00130441 0.00223514 0.000115681 986.613 
0.00189793 0.00247129 0.000104843 985.655 
0.00225152 0.00222318 0.000192114 985.603 
0.00276292 0.0024281 0.000276528 983.073 
0.00029736 0.00273118 0.000162807 984.025 
0.000619909 0.0028124 0.000179121 984.136 
0.000737716 0.00279598 0.000313034 983.228 
0.000980834 0.00287398 0.000149817 984.436 
0.00129088 0.00280223 0.000297083 983.312 
0.00211107 0.00276599 0.000102559 984.573 
0.00252785 0.00262373 0.000337426 982.839 
0.00254268 0.00289487 0.000290889 982.419 
0.0021773 0.00290772 0.00039073 981.943 
0.00278115 0.00280169 0.000306084 982.245 
0.000637076 0.000342719 0.00053611 981.166 
0.00046767 0.0001362 0.000759667 978.583 
0.000436089 0.000352181 0.000731621 979.277 
0.000972292 0.000313983 0.000774527 978.453 
0.00119434 0.000267215 0.000541647 981.008 
0.00138765 0.000197065 0.0005154 981.268 
0.00165254 0.000174398 0.000760119 979.193 
0.0020181 0.00021545 0.000431598 981.688 
0.00176571 0.00029649 0.000740957 979.593 
0.00247881 0.000401087 0.000460166 982.53 
0.00253843 0.000394129 0.000812287 978.858 
0.00235011 0.000328082 0.000548606 981.567 
0.00255466 9.71097e-05 0.000817262 978.493 
0.00283258 0.000243297 0.000620945 980.272 
0.000214758 0.000431077 0.000693494 979.371 
0.000133381 0.000727382 0.000686746 979.293 
0.00029634 0.000591366 0.00056365 980.74 
0.000738122 0.000612787 0.000787445 978.802 
0.000626733 0.000508007 0.000495999 981.662 
0.00119685 0.000481054 0.000511883 981.301 
0.000910006 0.000476057 0.000592139 980.161 
0.00158384 0.000652949 0.000730944 979.773 
0.00134305 0.000592974 0.000805247 978.862 
0.00205454 0.000737733 0.000481259 982.263 
0.00181517 0.000479986 0.000779234 979.133 
0.0021645 0.000703642 0.000772906 979.168 
0.00237547 0.000518898 0.000803373 978.986 
0.00225231 0.000570304 0.000659118 980.406 
0.00289847 0.000641168 0.000711556 979.38 
0.000324577 0.00116809 0.000709816 979.648 
0.000392925 0.000892314 0.000833582 978.193 
0.000137514 0.00119737 0.000837906 978.434 
0.000474684 0.00101494 0.000527583 980.694 
0.000751881 0.000858755 0.000603444 980.754 
0.00122401 0.000899272 0.000458608 982.961 
0.000978235 0.00119183 0.000606438 981.284 
0.00085953 0.00111276 0.000777641 979.172 
0.00154424 0.000962461 0.000563836 981.787 
0.00134362 0.00126252 0.000735602 979.814 
0.00129845 0.001031 0.000670933 980.517 
0.00169292 0.000988345 0.000814833 978.865 
0.00185894 0.00119968 0.000438262 983.499 
0.00210579 0.000996556 0.000806418 979.079 
0.00203029 0.00100084 0.000594942 981.641 
0.00245635 0.00090695 0.000780076 979.352 
0.00216524 0.00119772 0.000621533 981.303 
0.00259863 0.00116934 0.000830157 978.775 
0.00274284 0.000861969 0.000708624 980.093 
0.00288635 0.000963711 0.00065115 980.242 
0.002916 0.00125145 0.000534849 981.269 
0.000308172 0.0014394 0.000471192 982.265 
0.000670881 0.00148921 0.00062489 981.18 
0.00112444 0.00144423 0.000711531 980.129 
0.00125957 0.0015922 0.000429957 983.467 
0.0014668 0.00142566 0.000726018 979.978 
0.00134667 0.00154704 0.000579705 981.717 
0.00151322 0.00168823 0.000803935 979.134 
0.00198302 0.00153918 0.00044641 983.458 
0.00188253 0.00160702 0.000700279 980.439 
0.00209779 0.0015731 0.00057491 981.97 
0.00227879 0.00166431 0.000793856 979.311 
0.0027575 0.00129732 0.000611803 980.989 
0.000674124 0.0019965 0.00063576 980.149 
0.000697858 0.00189207 0.000501258 982.106 
0.000480974 0.00172464 0.000629654 980.898 
0.00118337 0.00193027 0.000818052 979.015 
0.000879384 0.00180979 0.000734137 979.969 
0.00103253 0.00172125 0.000737533 979.895 
0.00145736 0.00189975 0.000796898 979.272 
0.00130528 0.00177052 0.000501087 982.69 
0.00163354 0.00188833 0.000814241 979.075 
0.00210905 0.00188047 0.00077048 979.575 
0.00196412 0.00191903 0.000514174 982.458 
0.00248694 0.00193259 0.000467087 982.959 
0.00269916 0.00176409 0.000503916 982.008 
0.00286518 0.00208503 0.000495246 981.42 
0.00286052 0.00173696 0.000559742 981.137 
0.000408888 0.00218874 0.000596983 980.901 
0.000760882 0.00214732 0.000591684 981.345 
0.00123051 0.00222408 0.000656243 980.753 
0.00118412 0.00246791 0.000718619 980.086 
0.00103347 0.00253145 0.00063784 981.171 
0.00154522 0.00256679 0.00051631 982.064 
0.00153753 0.00223408 0.000749306 979.672 
0.00183383 0.00223407 0.000467557 982.887 
0.00238396 0.00216678 0.000578787 981.575 
0.00231043 0.00234885 0.000828431 978.766 
0.00215049 0.00220551 0.00056523 981.722 
0.00281486 0.00241114 0.000599605 980.682 
0.00267295 0.00222033 0.000836021 978.72 
0.00258497 0.00252056 0.000805683 979.055 
0.00289696 0.00215107 0.000717604 979.547 
0.00025327 0.00270852 0.000637935 980.698 
0.000611691 0.00269138 0.00063781 980.86 
0.00115057 0.00260356 0.000496625 982.36 
0.0016552 0.0028631 0.000803052 979.022 
0.00133014 0.00270852 0.000628231 980.808 
0.00182763 0.00291558 0.000536703 980.911 
0.00171891 0.0026639 0.000840041 978.751 
0.00229599 0.00274583 0.000773133 979.384 
0.00284094 0.00261213 0.000826726 978.856 
0.000268469 0.00016619 0.00105811 975.496 
0.000826283 0.000335585 0.00114527 974.648 
0.000556745 0.000215813 0.00112402 974.797 
0.00110581 0.000288104 0.00111098 975.255 
0.0010701 9.60391e-05 0.000865474 977.825 
0.00139104 0.000252049 0.00120334 974.274 
0.00135642 0.000414659 0.00112168 975.19 
0.00200186 0.000189396 0.00122733 974.038 
0.00181764 0.000129598 0.00105773 975.979 
0.00208057 0.000207959 0.00106602 975.85 
0.00210004 0.000421797 0.000956738 977.186 
0.00246113 0.000137809 0.0010202 976.375 
0.00290613 0.000283105 0.00101326 976.44 
0.00275476 0.000178508 0.00123535 973.728 
0.000228516 0.000666337 0.000884864 977.658 
0.000150697 0.0007613 0.00116148 974.442 
0.000324715 0.000487663 0.000963896 976.717 
0.000673862 0.000595477 0.00125255 973.323 
0.00107227 0.00069222 0.000950376 977.134 
0.00120935 0.000565489 0.00120486 974.271 
0.00164881 0.000537821 0.00102769 976.3 
0.00170273 0.000815204 0.000883498 978.023 
0.00134538 0.000738094 0.000997277 976.622 
0.00212862 0.000671873 0.00114091 974.964 
0.00198868 0.000721139 0.00123348 974.005 
0.00233121 0.00068508 0.000891013 977.975 
0.00282333 0.000722031 0.00113755 974.999 
0.00285759 0.000504441 0.000877045 978.09 
0.000125551 0.00113489 0.00120059 974.265 
0.000681221 0.00127912 0.001183 974.564 
0.000568761 0.00115774 0.000979949 976.829 
0.00114904 0.000911596 0.00126462 973.597 
0.00132934 0.00124217 0.00118346 974.398 
0.00160957 0.000990313 0.00127536 973.488 
0.00166937 0.00112561 0.000932736 977.499 
0.00208598 0.00107349 0.00108289 975.781 
0.00178825 0.00106296 0.00107584 975.772 
0.00186964 0.00104314 0.000862448 978.34 
0.00273963 0.00104475 0.00124038 973.95 
0.00266913 0.000996379 0.000967981 977.119 
0.00275856 0.00117845 0.00106266 976.065 
0.000248736 0.00150902 0.00116229 974.865 
0.000168601 0.00167788 0.000936637 977.548 
0.000109142 0.00135373 0.00122284 974.083 
0.000114514 0.00163344 0.00125267 973.868 
0.000769063 0.00164718 0.000858533 978.451 
0.000741924 0.00152259 0.00114338 975.089 
0.000840088 0.00136265 0.000943992 977.35 
0.00109391 0.00134873 0.00104482 976.137 
0.00117533 0.00170787 0.00122944 973.995 
0.000864017 0.00154026 0.0010038 976.685 
0.00155016 0.00150064 0.00125213 973.624 
0.00150267 0.00132017 0.000959827 977.199 
0.00203995 0.00141353 0.00109456 975.732 
0.00239981 0.00168877 0.00097541 977.208 
0.00226164 0.001315 0.000933044 977.605 
0.00254439 0.00157953 0.000913936 977.924 
0.00271735 0.00153491 0.00114077 975.275 
0.00277912 0.00161808 0.00089884 978.123 
0.00288496 0.00148975 0.0010238 976.621 
0.000361212 0.00189832 0.000919357 977.844 
0.000263585 0.00206611 0.00109019 975.921 
0.000267318 0.00181229 0.00119051 974.685 
0.000178267 0.00212645 0.00123106 974.325 
0.000130954 0.00195009 0.000877105 978.142 
0.000842262 0.00190225 0.000907506 977.953 
0.000481335 0.00179266 0.00104128 976.349 
0.000457608 0.00202095 0.00104318 976.428 
0.000629321 0.00199061 0.00124615 974.075 
0.000763913 0.00208717 0.000941189 977.568 
0.000653953 0.0019799 0.000869094 978.083 
0.000880467 0.00200739 0.00114192 975.26 
0.000961154 0.00211163 0.000986876 977.038 
0.00142737 0.00188797 0.0010735 975.954 
0.00170673 0.00205005 0.000978301 977.159 
0.00129958 0.00201917 0.00125601 974.004 
0.00199624 0.00172625 0.00102793 976.554 
0.00220687 0.00192564 0.00111051 975.676 
0.00257245 0.00213287 0.00127127 974.174 
0.00285733 0.00208985 0.000917 977.905 
0.00280449 0.00200061 0.00127441 973.942 
0.000308577 0.00225175 0.00110201 975.814 
0.000572406 0.00242025 0.000992863 977.037 
0.000762506 0.00243721 0.00116864 975.055 
0.00103686 0.00253877 0.000891583 978.188 
0.000934215 0.00234528 0.00089924 978.079 
0.00158554 0.00214501 0.00126447 973.99 
0.00156842 0.00249415 0.00112609 975.604 
0.00139062 0.00218927 0.000931559 977.669 
0.00152611 0.00236616 0.000853261 978.552 
0.00180992 0.00238295 0.00106663 976.252 
0.0018083 0.00217125 0.000906365 977.964 
0.00227153 0.00252271 0.00100963 976.95 
0.00231827 0.00221712 0.00117178 975.339 
0.00248751 0.00253627 0.00112753 975.834 
9.8879e-05 0.00285989 0.00101359 976.853 
0.000307722 0.00288256 0.00120589 974.678 
0.000197037 0.00260125 0.00111697 975.676 
0.00083214 0.00277242 0.000972997 977.285 
0.00051709 0.00273798 0.00119316 974.823 
0.000835164 0.00259554 0.00120485 974.654 
0.00108739 0.0027676 0.000886524 978.231 
0.00145205 0.00261356 0.00119717 974.831 
0.00135941 0.00257376 0.0009498 977.521 
0.00138549 0.00284793 0.00124263 974.345 
0.00154987 0.00274708 0.00107113 976.237 
0.00154112 0.00260464 0.000981545 977.196 
0.00196631 0.00272673 0.00107774 976.188 
0.00180762 0.00265355 0.00103614 976.626 
0.00184636 0.00283472 0.000956735 977.52 
0.00210037 0.00286489 0.00117297 975.301 
0.00256214 0.00282651 0.0011281 975.881 
0.00227565 0.00283062 0.00105376 976.57 
0.00285594 0.00274244 0.00106321 976.533 
0.00273187 0.00261303 0.00105763 976.554 
0.000375936 0.000351474 0.0014541 970.817 
0.000364498 0.000110503 0.00147974 970.738 
0.000692574 9.71164e-05 0.0015736 969.768 
0.000749706 0.000305423 0.00164781 968.808 
0.000996557 0.000136741 0.00133467 972.664 
0.00147066 0.00032363 0.00169974 968.625 
0.00159668 0.000382889 0.00138559 972.292 
0.00174679 0.000327198 0.00147053 971.278 
0.00245756 0.000181724 0.00151945 970.441 
0.00226264 0.00026062 0.00155129 970.058 
0.00290969 0.000207071 0.00164014 969.035 
0.00284775 0.000135849 0.00138066 972.047 
0.00267907 0.000148702 0.00161042 969.359 
0.000275273 0.000514798 0.00143557 971.125 
0.0010264 0.000664735 0.00129818 973.151 
0.000981427 0.000835557 0.00142035 971.746 
0.00100248 0.000645637 0.00147052 971.161 
0.00164346 0.000598516 0.00169491 968.677 
0.00145391 0.000839487 0.00167021 968.934 
0.00138177 0.000484275 0.0014152 971.921 
0.00189317 0.000451253 0.00142071 971.831 
0.00231888 0.000443401 0.00158278 969.647 
0.0025097 0.000496948 0.00133114 972.58 
0.00272158 0.000668127 0.00139942 971.829 
0.0026543 0.000781475 0.00167457 968.639 
0.000170702 0.000996563 0.00160048 969.665 
0.000403474 0.00119273 0.00147034 971.226 
0.000211058 0.00124574 0.00145608 971.396 
0.000652112 0.00103922 0.00144782 971.455 
0.000580891 0.00102834 0.00163726 969.263 
0.00104855 0.000959258 0.00169929 968.584 
0.00150926 0.00115471 0.00138377 972.102 
0.00136772 0.00122308 0.00164523 969.023 
0.00143945 0.000909634 0.0014947 970.943 
0.00207242 0.00118274 0.00152691 970.671 
0.0023823 0.00124824 0.00151628 970.786 
0.00238906 0.000891962 0.00134423 972.623 
0.00224109 0.00101191 0.00157238 970.057 
0.00280193 0.000955865 0.00148848 970.988 
0.00268235 0.00125074 0.00129552 973.375 
0.000267648 0.00136266 0.00132983 972.872 
0.000223221 0.00167021 0.00164183 969.34 
0.000703896 0.00138444 0.00162245 969.547 
0.000442233 0.00161363 0.00140727 972.107 
0.000436692 0.00148922 0.00163997 969.361 
0.00106749 0.0012909 0.00142341 971.749 
0.000907931 0.00159578 0.0013999 972.162 
0.00128402 0.0015574 0.0013414 972.558 
0.001271 0.00161702 0.00166676 968.807 
0.00170366 0.00146708 0.0015977 969.599 
0.00196356 0.00157418 0.00130526 973.336 
0.00189199 0.00169288 0.00152359 970.774 
0.00236144 0.00163933 0.00133757 972.975 
0.00272843 0.00164379 0.00137104 972.656 
0.00284282 0.00135481 0.00160335 969.856 
0.000298735 0.0018396 0.00155369 970.456 
0.000310529 0.00206862 0.00158554 970.158 
0.000147906 0.00185014 0.00167031 969.073 
0.000117379 0.0017873 0.00138486 972.396 
0.000162376 0.00204612 0.0014624 971.59 
0.000852267 0.00205112 0.00134755 972.911 
0.000722482 0.00175143 0.00152181 970.801 
0.00157391 0.0017168 0.00145681 971.311 
0.00139704 0.00210949 0.00142719 972.1 
0.00132973 0.00177749 0.00152703 970.548 
0.00208782 0.00190886 0.00156457 970.475 
0.0017176 0.0017782 0.00131702 973.006 
0.00238019 0.00193099 0.00132854 973.231 
0.00273791 0.00198722 0.00158506 970.379 
0.000176503 0.00249022 0.00133845 973.109 
0.000256815 0.00229584 0.00148868 971.368 
0.00034213 0.00217714 0.00128899 973.672 
0.000676478 0.00255788 0.00149671 971.336 
0.000660929 0.00223034 0.0016128 969.913 
0.000760891 0.00230191 0.00148763 971.376 
0.00109969 0.00250361 0.00160789 970.002 
0.00103345 0.00214733 0.00147356 971.465 
0.00135689 0.00217464 0.00168584 969.115 
0.00189756 0.00236546 0.00154569 970.883 
0.00239895 0.0021684 0.00164294 969.964 
0.00217317 0.00244293 0.00163659 970.123 
0.00284931 0.00233975 0.00161132 970.459 
0.0026883 0.00225836 0.00131453 973.915 
0.00280452 0.00255591 0.00127896 974.305 
0.000397685 0.00288578 0.00150219 971.244 
0.000765211 0.00289631 0.00156966 970.476 
0.00091228 0.00268978 0.00133381 973.166 
0.000887648 0.00270585 0.00152318 970.99 
0.00112594 0.00275583 0.00170017 968.981 
0.00158647 0.00276404 0.00155135 970.917 
0.00203254 0.00290666 0.00160554 970.385 
0.0019672 0.00274244 0.00146455 971.893 
0.00232758 0.00271763 0.00158577 970.959 
0.00245342 0.00260179 0.00153905 971.639 
0.002643 0.00286811 0.00167276 969.9 
0.00280864 0.00286203 0.00138565 973.105 
0.000249385 0.000406453 0.00172678 967.861 
0.000338811 0.000388784 0.00198218 965.185 
0.000362893 0.000141742 0.00174935 967.698 
0.000439118 0.000262588 0.0021134 963.793 
0.00084448 0.000174231 0.00203553 964.669 
0.000521056 0.000385749 0.00187087 966.359 
0.000562454 0.000161379 0.00198077 965.219 
0.00093176 8.37308e-05 0.00175199 967.837 
0.00120916 0.000268835 0.00204971 964.483 
0.00110848 0.000167268 0.00184466 966.9 
0.00201061 0.000315778 0.00187997 966.403 
0.00176625 0.000348978 0.00177911 967.656 
0.00181748 0.000307034 0.00212294 963.589 
0.00213751 0.000162272 0.00206829 964.166 
0.0021784 0.000368615 0.00209364 963.87 
0.002155 0.000145848 0.00175876 967.713 
0.00247148 8.80146e-05 0.00174791 967.815 
0.00259983 0.000376824 0.00182351 966.875 
0.00288721 0.000409491 0.00207257 964.012 
0.000188357 0.000710078 0.00189426 966.13 
0.0003838 0.000522298 0.00171621 967.962 
0.000740266 0.000643498 0.00175055 967.632 
0.000496968 0.000542115 0.00212494 963.681 
0.000682977 0.000800577 0.00194144 965.654 
0.00125683 0.000497309 0.00179363 967.524 
0.000952142 0.000656709 0.00209406 964.042 
0.000961434 0.000827173 0.00197429 965.331 
0.00122614 0.000769338 0.00179079 967.56 
0.000984444 0.000546932 0.00188553 966.368 
0.00121149 0.000569245 0.00206035 964.361 
0.0016631 0.000784692 0.00211143 963.748 
0.0015203 0.000715076 0.0018979 966.263 
0.00141158 0.000496597 0.00208989 964.01 
0.00194816 0.000667238 0.00181748 967.175 
0.00196957 0.000550682 0.00209159 963.974 
0.00255059 0.000715969 0.0019646 965.357 
0.00236958 0.000483388 0.00196521 965.355 
0.00228694 0.000603157 0.00178251 967.385 
0.00281334 0.000781655 0.00180869 967.066 
0.000163025 0.000958369 0.00203377 964.691 
0.000120382 0.00125271 0.00205267 964.472 
0.000188028 0.00119113 0.00170615 968.519 
0.000427024 0.000990498 0.00205124 964.498 
0.000562518 0.00124771 0.00178841 967.59 
0.000861312 0.00106975 0.00205548 964.423 
0.00115529 0.00100281 0.00199839 965.077 
0.00118243 0.00109599 0.00176233 967.764 
0.00153977 0.000986391 0.00187873 966.461 
0.00129773 0.000864836 0.00195729 965.564 
0.00196497 0.00116864 0.00197119 965.395 
0.00176487 0.00124307 0.0018791 966.409 
0.00201064 0.000906066 0.00171061 968.428 
0.00224716 0.00106618 0.00194049 965.729 
0.00245135 0.000903211 0.00176566 967.681 
0.00251723 0.00115293 0.0017874 967.554 
0.00272802 0.000912496 0.00210911 963.684 
0.0028437 0.00098532 0.00181111 967.188 
0.000401699 0.00135499 0.00180102 967.46 
0.000391009 0.00168217 0.00170972 968.572 
0.000103628 0.00167789 0.00204438 964.627 
9.95057e-05 0.00139283 0.00172561 968.303 
0.000789058 0.00170074 0.00187868 966.618 
0.000843659 0.00138141 0.00193188 965.936 
0.000549511 0.00163862 0.00207758 964.257 
0.00109107 0.00167628 0.00192879 965.961 
0.00105053 0.00134035 0.00187456 966.549 
0.000953796 0.0014528 0.00176526 967.893 
0.001402 0.00146619 0.0020743 964.373 
0.00171599 0.00167843 0.00196948 965.659 
0.00182432 0.00140479 0.00202453 964.921 
0.00227808 0.0016736 0.00171803 968.611 
0.00249797 0.00134856 0.00183328 967.14 
0.00272039 0.00158168 0.00195202 965.914 
0.000185758 0.0020422 0.00185038 967.003 
0.000304619 0.0017268 0.0019077 966.256 
0.000620392 0.00193171 0.00182948 967.24 
0.00164907 0.00197544 0.00175914 968.192 
0.00134972 0.00177392 0.00191841 966.144 
0.00146523 0.00210218 0.00205626 964.736 
0.00206246 0.00173251 0.00185535 967.053 
0.00191735 0.00189851 0.00178524 967.835 
0.00205086 0.00175322 0.00209788 964.201 
0.00250032 0.00181373 0.00185711 967.111 
0.00261778 0.00202114 0.00187353 967.074 
8.56459e-05 0.00245132 0.0018822 966.648 
0.00021165 0.00219999 0.00193081 966.079 
0.000914038 0.00223409 0.00181761 967.467 
0.00129603 0.00244828 0.0019343 966.25 
0.00162981 0.00226354 0.00172121 968.806 
0.00210176 0.00221695 0.00191641 966.663 
0.00247161 0.0024224 0.00200888 965.659 
0.00216941 0.00231977 0.00212174 964.236 
0.00279112 0.00233262 0.0018852 967.243 
0.000376262 0.00283633 0.00178484 967.898 
0.000415534 0.00287775 0.0021154 963.862 
0.000131011 0.00290916 0.00198851 965.391 
0.000630792 0.00271674 0.00170909 968.865 
0.000572245 0.00271978 0.00198804 965.478 
0.000822147 0.0028258 0.0018631 967.049 
0.000670251 0.0029113 0.00201558 965.165 
0.00119021 0.0029138 0.00209285 964.417 
0.000994935 0.00286864 0.00209906 964.264 
0.00158093 0.00275102 0.00208939 964.606 
0.00152561 0.0028433 0.00177285 968.33 
0.00184118 0.00274834 0.00212594 964.274 
0.00182816 0.00285811 0.00174562 968.755 
0.00199112 0.00277422 0.00190031 966.954 
0.00218872 0.00282938 0.00208672 964.862 
0.00218104 0.00267836 0.00173856 969.057 
0.00223656 0.00278725 0.00192656 966.806 
0.00107528 0.000277582 0.00214937 963.379 
0.00140479 0.000245991 0.00248698 959.514 
0.00169251 9.69456e-05 0.00242936 960.185 
0.00186852 0.000247062 0.00249027 959.477 
0.00199847 0.00031114 0.00223801 962.351 
0.00230317 0.000362371 0.00244753 959.75 
0.00244239 0.000255808 0.00245579 959.698 
0.00237993 0.000403423 0.00217176 962.93 
0.00232208 0.00012122 0.00225406 962.05 
0.00277172 0.000267587 0.0022432 961.994 
0.00281706 0.000360051 0.00252833 958.879 
0.00267104 0.00018316 0.00248986 959.341 
0.000431652 0.000767203 0.00254525 959.075 
0.000815067 0.000827534 0.0023989 960.694 
0.00122416 0.000431447 0.00220612 962.678 
0.00113491 0.000497315 0.00244838 960.029 
0.000931082 0.000700801 0.00241984 960.439 
0.00144657 0.000514628 0.00231857 961.362 
0.00133824 0.00079951 0.00239553 960.566 
0.00192888 0.00069509 0.00248267 959.605 
0.0018539 0.000458582 0.00253911 958.933 
0.00239154 0.00067456 0.00222337 962.324 
0.00219324 0.000835567 0.00255016 958.733 
0.00221554 0.000515522 0.00247527 959.522 
0.000135362 0.00103423 0.00241229 960.489 
0.000337968 0.0012279 0.00215119 963.311 
0.000530032 0.00125289 0.00242392 960.209 
0.00057768 0.00106118 0.00216271 963.231 
0.000851683 0.00123718 0.00226925 961.992 
0.00108355 0.00122558 0.00217016 963.172 
0.00164954 0.000899289 0.00236777 960.902 
0.00155495 0.00106654 0.00237699 960.838 
0.00211811 0.00114793 0.00222799 962.399 
0.0017165 0.00116918 0.00217601 963.051 
0.00229893 0.00107118 0.00246412 959.775 
0.00245904 0.00103316 0.00232589 961.338 
9.23699e-05 0.00146084 0.00236623 960.87 
0.000838664 0.00142514 0.00230561 961.597 
0.000454719 0.00146691 0.00230977 961.469 
0.000532552 0.00160007 0.00245614 959.773 
0.00125563 0.00140908 0.0024088 960.461 
0.000997173 0.00148387 0.00224558 962.379 
0.00169313 0.00147084 0.00240185 960.568 
0.0019714 0.00134607 0.00239621 960.689 
0.00229074 0.00148244 0.00215595 963.332 
0.00256813 0.00160471 0.00255125 958.615 
0.00248228 0.0017002 0.00226523 962.093 
0.0021524 0.00142782 0.00242058 960.286 
0.00253724 0.00144745 0.00225395 962.106 
0.00266986 0.00136142 0.00218293 962.929 
0.00285925 0.00144317 0.00238951 960.636 
0.00285925 0.00135874 0.00219178 962.856 
0.000282136 0.00185425 0.00233698 961.282 
0.000202167 0.00181944 0.00249192 959.439 
0.000490088 0.00190565 0.00216314 963.314 
0.000627163 0.00172145 0.00232751 961.33 
0.000654307 0.00194082 0.00240368 960.615 
0.000738015 0.00181516 0.00223397 962.465 
0.0011175 0.00173965 0.00240856 960.551 
0.00113644 0.00209201 0.00245926 960.071 
0.00145362 0.00197473 0.00222993 962.742 
0.00143345 0.00194332 0.00245637 960.145 
0.0016414 0.00202436 0.00229631 962.046 
0.00173064 0.0019401 0.00217228 963.433 
0.00238108 0.00174662 0.00241473 960.391 
0.00241821 0.00188584 0.00253923 959.18 
0.00218402 0.00187442 0.00237625 961.025 
0.00282982 0.00180909 0.00230233 961.866 
0.00275593 0.00190833 0.00213347 963.925 
0.00284393 0.00191387 0.00249611 959.771 
0.00259992 0.00192208 0.00238329 961.05 
0.00022934 0.00252451 0.0023818 960.588 
0.0002229 0.00227622 0.0023359 961.131 
0.000455488 0.00238206 0.00213224 963.628 
0.000645061 0.00253843 0.00243672 959.906 
0.00077107 0.00236743 0.0023008 961.596 
0.000539548 0.00218572 0.00249987 959.346 
0.000747695 0.00251326 0.00220064 962.809 
0.000741427 0.00215823 0.00229513 961.726 
0.000912268 0.00248167 0.00231473 961.612 
0.000947954 0.00226158 0.00227357 962.091 
0.00102668 0.00238474 0.00212919 963.841 
0.001122 0.00238617 0.00232448 961.607 
0.00131103 0.00242419 0.00232089 961.699 
0.00189685 0.00239938 0.00213266 964.068 
0.00191469 0.00226693 0.00237108 961.292 
0.00202733 0.0023785 0.00247431 960.183 
0.00208516 0.00224052 0.00238688 961.158 
0.00234523 0.00220321 0.0025026 959.846 
0.00228098 0.00237028 0.00229271 962.297 
0.00257514 0.00244347 0.0021421 964.143 
0.00274684 0.00214377 0.00231495 962.029 
0.00260798 0.00226711 0.00240924 960.963 
0.00276184 0.00223052 0.0024995 959.931 
0.000115649 0.00271282 0.00232388 961.358 
0.000227041 0.00288489 0.00236135 960.963 
0.000125467 0.00273138 0.00251335 959.122 
0.000846595 0.00273031 0.00227089 962.092 
0.000841603 0.00282295 0.00250888 959.337 
0.00144742 0.00274245 0.00243423 960.52 
0.00203415 0.00287561 0.00238197 961.447 
0.00236453 0.00262839 0.00226985 962.693 
0.00214623 0.00266463 0.00249427 960.068 
0.00271974 0.00266105 0.00220084 963.597 
0.0028131 0.00278422 0.00248628 960.345 
0.000128186 0.00041985 0.00276742 956.666 
0.000667961 0.000413246 0.00282162 956.02 
0.00102887 0.000214937 0.00295678 954.417 
0.00126896 0.000413782 0.0029477 954.469 
0.0015615 0.00016799 0.00271375 956.982 
0.00169252 0.000264915 0.00285609 955.371 
0.00199722 0.000203869 0.00279156 956.117 
0.00198901 0.000347203 0.00292938 954.552 
0.00256895 0.000259738 0.00274932 956.39 
0.00215788 0.000406285 0.00289137 954.894 
0.000110176 0.000723295 0.00276713 956.58 
0.000426461 0.000529803 0.0026934 957.483 
0.000774184 0.00070473 0.00260255 958.431 
0.00123079 0.000806473 0.00262772 957.986 
0.00104335 0.000545155 0.00277956 956.382 
0.00119774 0.000431986 0.00264354 957.823 
0.00146531 0.000506957 0.00280431 955.988 
0.00130271 0.000693844 0.00288732 955.1 
0.00208221 0.000761138 0.0029381 954.422 
0.001825 0.000819863 0.00286132 955.313 
0.00246027 0.000770238 0.00264623 957.576 
0.00220912 0.000738645 0.00274357 956.509 
0.00259914 0.000802727 0.00287794 955.024 
0.00276656 0.000630478 0.00292393 954.528 
0.00034795 0.000992113 0.00291957 954.834 
0.000294762 0.00106333 0.00274969 956.703 
0.000783125 0.00098729 0.00259862 958.428 
0.00154211 0.00122951 0.00284531 955.582 
0.00152942 0.00103691 0.00270445 957.173 
0.00199656 0.00121898 0.00266185 957.68 
0.00212668 0.001184 0.00280712 955.89 
0.00179128 0.0010735 0.00263094 957.972 
0.00218486 0.000941597 0.00286099 955.305 
0.00266753 0.00116971 0.00257147 958.468 
0.00029819 0.00167397 0.00290351 954.784 
0.000196786 0.00137731 0.00289372 954.979 
0.00044829 0.001418 0.0026418 957.706 
0.000559686 0.00164309 0.00292577 954.625 
0.000790116 0.00148316 0.00263231 957.884 
0.000779579 0.00138356 0.0028496 955.482 
0.000684436 0.00130948 0.00265206 957.622 
0.00120601 0.00136428 0.00268872 957.342 
0.00163977 0.00166415 0.00260584 958.309 
0.00197838 0.00162203 0.00277142 956.539 
0.00177828 0.00153849 0.00295455 954.446 
0.00235304 0.00152421 0.00255987 958.53 
0.0022445 0.00130627 0.00281533 955.766 
0.00283284 0.00162328 0.002847 955.502 
0.00290049 0.00160435 0.0025837 958.536 
0.0028862 0.00136892 0.00267802 957.374 
0.0026554 0.0013334 0.00281757 955.724 
0.000552558 0.00184069 0.00270745 957.024 
0.000712685 0.00209273 0.00292592 954.521 
0.00108753 0.00210093 0.00276348 956.563 
0.0009051 0.00200919 0.00295769 954.267 
0.00106056 0.00184211 0.00257372 958.691 
0.000977552 0.00172431 0.00266128 957.661 
0.00165854 0.00210308 0.00269695 957.469 
0.00145237 0.00201651 0.00282105 955.989 
0.00194163 0.00190851 0.00262259 958.34 
0.00218974 0.00199455 0.0029021 955.172 
0.00253692 0.00200401 0.00257637 958.929 
0.00284036 0.00190031 0.00290524 954.988 
0.000409255 0.00234191 0.00275976 956.215 
0.000608646 0.0025163 0.00274632 956.404 
0.000685036 0.0023992 0.00258755 958.204 
0.00108523 0.00247257 0.00287504 955.257 
0.00165248 0.00221143 0.00294326 954.651 
0.00185223 0.00240795 0.00284468 955.862 
0.00253713 0.00247596 0.00295405 954.752 
0.00234827 0.00238814 0.00268076 957.865 
0.00236647 0.00230389 0.00297294 954.47 
0.00276898 0.00231709 0.00275482 956.992 
0.00257727 0.00219982 0.00272412 957.302 
0.000222207 0.00263018 0.00275467 956.203 
0.000485136 0.00267534 0.0028743 954.98 
0.000571003 0.00284241 0.00290202 954.692 
0.00105365 0.00272532 0.00261052 958.32 
0.00156809 0.0028633 0.00275602 956.867 