# Probe 0 (0.0015 0.0015 0)
# Probe 1 (0.0015 0.0015 0.01)
# Probe 2 (0.0015 0.0015 0.02)
# Probe 3 (0.0015 0.0015 0.03)
# Probe 4 (0.0015 0.0015 0.04)
# Probe 5 (0.0015 0.0015 0.05)
# Probe 6 (0.0015 0.0015 0.06)
# Probe 7 (0.0015 0.0015 0.07)
# Probe 8 (0.0015 0.0015 0.08)
# Probe 9 (0.0015 0.0015 0.09)
# Probe 10 (0.0015 0.0015 0.1)
# Time        0             1             2             3             4             5             6             7             8             9             10           
50            194262        132229        92090.4       74842         69038.9       67650.4       67781.4       67783.1       67783.1       67724.6       33516        
100           203692        156572        116386        90167.8       76494.6       70534.3       67779.2       67783.1       67782.7       67502.1       29037.2      
150           207930        168739        132473        104501        86025         75447.7       67792.2       67783.1       67780.9       67079.8       26634.4      
200           210456        176216        143328        115868        95254.6       81351         67850.9       67783.1       67775.4       66482.2       25097.3      
250           212166        181347        151099        124680        103313        87376.3       67990.8       67783.5       67763.2       65757.6       24011.4      
300           213407        185106        156933        131611        110151        93084.3       68244.7       67784.8       67740.7       64952.5       23193.7      
350           214354        187987        161482        137190        115951        98318.8       68635.3       67788.4       67705         64103.7       22549.9      
400           215103        190277        165143        141787        120917        103059        69172.4       67795.9       67653.5       63238.1       22026.5      
450           215713        192150        168170        145657        125218        107337        69855.9       67809.8       67584.6       62373.5       21590.1      
500           216224        193722        170728        148975        128987        111207        70676.7       67832.6       67497.7       61522.1       21219        
550           216660        195066        172931        151864        132326        114718        71620.5       67867.2       67392.8       60691.2       20898.4      
600           217038        196236        174859        154415        135314        117919        72670.5       67916.3       67270.5       59885.5       20618        
650           217371        197268        176566        156691        138008        120852        73808.3       67982.6       67132.1       59107.6       20370        
700           217668        198188        178094        158740        140457        123549        75017         68068.4       66979         58358.2       20148.5      
750           217936        199018        179476        160603        142698        126042        76279.8       68175.4       66813.1       57637.8       19949.2      
800           218178        199772        180735        162306        144759        128354        77585.5       68305.5       66635.8       56944.9       19768.6      
850           218400        200462        181889        163873        146666        130506        78918.2       68459         66449.5       56280         19603.9      
900           218604        201097        182953        165322        148436        132517        80268.3       68636.5       66256         55641.7       19453        
950           218793        201683        183937        166666        150084        134402        81626.8       68838         66057.2       55028.9       19314        
1000          218968        202228        184853        167920        151628        136173        82986.9       69063.4       65854.8       54440.4       19185.5      
1050          219131        202737        185710        169094        153077        137842        84342.4       69312         65650.5       53875.1       19066.1      
1100          219284        203214        186512        170196        154441        139418        85688.2       69583         65445.8       53331.9       18954.9      
1150          219427        203661        187266        171233        155727        140911        87020.4       69875.1       65242.3       52809.7       18850.9      
1200          219562        204081        187976        172212        156944        142327        88335.7       70187.3       65041.2       52307.5       18753.4      
1250          219690        204479        188647        173138        158098        143672        89632.2       70518.5       64843.5       51824.3       18661.8      
1300          219810        204856        189284        174017        159194        144953        90908         70867.2       64650.4       51359         18575.5      
1350          219925        205213        189888        174852        160237        146174        92161.2       71232         64462.9       50911.1       18494        
1400          220034        205552        190462        175647        161232        147340        93390.9       71611.6       64281.6       50479.7       18416.9      
1450          220137        205876        191010        176405        162181        148455        94596.4       72004.6       64107.2       50064.1       18343.8      
1500          220236        206184        191532        177129        163088        149523        95777.1       72409.5       63940.4       49663.5       18274.4      
1550          220330        206479        192031        177821        163957        150547        96932.7       72825.2       63781.6       49277.3       18208.4      
1600          220420        206759        192507        178482        164789        151531        98062.2       73249.8       63631.3       48905.3       18145.5      
1650          220506        207028        192963        179117        165588        152476        99167.1       73682.8       63489.6       48546.4       18085.5      
1700          220589        207287        193402        179726        166355        153384        100247        74122.9       63356.8       48200.4       18028.2      
1750          220668        207535        193823        180312        167093        154257        101303        74569.1       63233.1       47866.7       17973.4      
1800          220744        207774        194228        180876        167803        155099        102334        75020.4       63118.6       47544.9       17921        
1850          220818        208003        194618        181418        168487        155910        103341        75475.7       63013.3       47234.7       17870.8      
1900          220888        208224        194993        181940        169146        156692        104324        75934.4       62917.3       46935.6       17822.6      
1950          220956        208437        195354        182443        169782        157448        105284        76395.4       62830.4       46647.3       17776.4      
2000          221022        208641        195702        182928        170395        158178        106221        76858.2       62752.7       46369.5       17731.9      
2050          221085        208839        196038        183397        170988        158884        107135        77321.8       62684         46101.8       17689.2      
2100          221146        209030        196361        183849        171560        159566        108028        77785.9       62624.2       45844         17648.2      
2150          221204        209214        196674        184285        172113        160226        108899        78249.8       62573.1       45595.8       17608.7      
2200          221261        209392        196977        184708        172648        160863        109750        78712.8       62530.5       45356.8       17570.7      
2250          221316        209564        197270        185117        173166        161481        110580        79174.5       62496.2       45126.8       17534.1      
2300          221369        209731        197553        185512        173668        162080        111390        79634.6       62470         44905.7       17498.8      
2350          221420        209892        197827        185894        174152        162660        112180        80092.7       62451.8       44693.1       17464.9      
2400          221471        210047        198092        186266        174623        163222        112952        80548.2       62441.3       44488.8       17432.1      
2450          221519        210199        198350        186626        175080        163766        113705        81001         62438.1       44292.6       17400.6      
2500          221565        210345        198598        186973        175521        164296        114440        81450.8       62442.2       44104.3       17370.1      
2550          221610        210487        198839        187309        175949        164809        115158        81897.2       62453.2       43923.7       17340.7      
2600          221654        210624        199073        187636        176365        165308        115858        82340         62470.9       43750.6       17312.5      
2650          221696        210757        199301        187955        176769        165792        116542        82779.1       62495         43584.7       17285.2      
2700          221738        210887        199522        188264        177162        166263        117210        83214.2       62525.4       43425.9       17258.8      
2750          221778        211013        199736        188564        177543        166720        117862        83645.2       62561.7       43274.1       17233.5      
2800          221817        211135        199944        188855        177913        167164        118499        84072         62603.8       43129.1       17209        
2850          221855        211254        200147        189138        178274        167596        119121        84494.5       62651.4       42990.6       17185.4      
2900          221892        211369        200344        189414        178625        168017        119729        84912.7       62704.2       42858.4       17162.7      
2950          221928        211482        200536        189683        178966        168426        120322        85326.3       62762.1       42732.6       17140.8      
3000          221963        211592        200723        189945        179299        168825        120902        85735.3       62824.8       42612.7       17119.7      
3050          221997        211698        200905        190199        179623        169213        121469        86139.7       62892.1       42498.8       17099.4      
3100          222031        211802        201082        190447        179938        169591        122023        86539.4       62963.8       42390.7       17079.8      
3150          222063        211904        201255        190689        180246        169960        122564        86934.4       63039.7       42288.2       17061        
3200          222095        212002        201423        190924        180545        170319        123093        87324.7       63119.6       42191.1       17042.9      
3250          222125        212094        201580        191146        180829        170667        123611        87710.4       63203.2       42099.4       17025.4      
3300          222153        212183        201732        191361        181106        171002        124117        88091.3       63290.5       42012.8       17008.7      
3350          222181        212271        201883        191573        181377        171329        124611        88467.6       63381.2       41931.4       16992.6      
3400          222209        212358        202031        191782        181643        171650        125094        88839         63475.2       41854.8       16977.2      
3450          222236        212443        202177        191986        181903        171963        125567        89205.7       63572.2       41783         16962.4      
3500          222263        212527        202319        192185        182158        172269        126029        89567.7       63672.2       41715.9       16948.2      
3550          222289        212608        202458        192381        182407        172568        126481        89925         63774.9       41653.3       16934.6      
3600          222314        212687        202593        192570        182648        172859        126923        90277.6       63880.3       41595.2       16921.7      
3650          222339        212765        202726        192755        182885        173144        127356        90625.7       63988.1       41541.3       16909.2      
3700          222363        212841        202855        192937        183116        173422        127780        90969.2       64098.2       41491.6       16897.3      
3750          222387        212915        202982        193114        183342        173693        128194        91308.3       64210.6       41446         16886        
3800          222410        212987        203105        193288        183563        173959        128600        91642.6       64324.9       41404.3       16875.2      
3850          222433        213058        203226        193457        183778        174218        128997        91972.7       64441.2       41366.4       16864.9      
3900          222455        213128        203344        193623        183989        174472        129386        92298.1       64559.2       41332.2       16855.1      
3950          222476        213196        203460        193784        184196        174720        129767        92619.4       64679         41301.7       16845.8      
4000          222498        213262        203573        193943        184397        174962        130140        92936.1       64800.2       41274.6       16837        
4050          222518        213325        203681        194094        184590        175195        130507        93249         64923.1       41250.9       16828.6      
4100          222538        213388        203788        194245        184782        175426        130865        93557.3       65047.2       41230.6       16820.7      
4150          222557        213449        203892        194390        184968        175651        131216        93861.7       65172.6       41213.5       16813.3      
4200          222577        213508        203993        194534        185152        175875        131560        94161.5       65299.1       41199.6       16806.3      
4250          222594        213566        204093        194671        185328        176088        131897        94458.3       65427         41188.7       16799.7      
4300          222614        213622        204188        194808        185503        176297        132228        94750.5       65555.6       41180.7       16793.5      
4350          222630        213678        204284        194940        185672        176503        132551        95038.8       65685.2       41175.5       16787.7      
4400          222649        213732        204376        195072        185840        176704        132869        95323.3       65815.5       41173.1       16782.3      
4450          222664        213786        204468        195199        186003        176902        133180        95603.9       65946.6       41173.3       16777.3      
4500          222681        213836        204554        195321        186159        177088        133485        95880.7       66078.3       41176         16772.7      
4550          222697        213887        204640        195442        186314        177276        133785        96153.9       66210.7       41181.3       16768.4      
4600          222713        213936        204725        195561        186467        177460        134078        96423.5       66343.6       41189.1       16764.5      
4650          222728        213984        204806        195675        186613        177641        134366        96689.4       66477         41199.1       16760.9      
4700          222743        214031        204887        195790        186761        177820        134649        96951.8       66610.7       41211.4       16757.6      
4750          222758        214079        204968        195904        186907        177997        134927        97211.1       66745.1       41226         16754.7      
4800          222773        214123        205044        196011        187043        178161        135199        97466.4       66879.3       41242.5       16752.1      
4850          222787        214169        205122        196121        187184        178330        135466        97718.4       67013.9       41261.2       16749.8      
4900          222802        214214        205200        196229        187322        178498        135728        97967.6       67149         41281.9       16747.8      
4950          222815        214256        205272        196330        187451        178653        135986        98213         67283.9       41304.3       16746.1      
5000          222829        214300        205346        196435        187584        178813        136239        98455.3       67418.9       41328.7       16744.7      
5050          222843        214343        205419        196537        187715        178972        136487        98694.8       67554.3       41355         16743.6      
5100          222856        214383        205487        196633        187837        179118        136731        98930.8       67689.3       41382.8       16742.7      
5150          222869        214424        205558        196732        187963        179270        136971        99163.8       67824.4       41412.3       16742.1      
5200          222882        214465        205627        196829        188087        179420        137207        99394.2       67959.7       41443.5       16741.7      
5250          222894        214502        205692        196919        188203        179558        137438        99621.1       68094.5       41476.1       16741.6      
5300          222906        214540        205755        197009        188317        179698        137666        99845.5       68229.4       41510.2       16741.7      
5350          222917        214576        205818        197097        188432        179839        137890        100067        68364.2       41545.8       16742.1      
5400          222928        214610        205876        197180        188538        179968        138110        100286        68498.6       41582.6       16742.7      
5450          222940        214647        205938        197268        188651        180105        138326        100502        68633         41621         16743.5      
5500          222950        214680        205996        197348        188754        180229        138539        100715        68766.9       41660.4       16744.5      
5550          222962        214716        206056        197434        188863        180362        138748        100926        68900.7       41701.1       16745.7      
5600          222972        214748        206112        197512        188964        180482        138953        101134        69034.1       41742.9       16747.1      
5650          222983        214783        206171        197595        189070        180611        139156        101339        69167.3       41786         16748.8      
5700          222993        214815        206226        197672        189168        180729        139354        101542        69299.8       41829.9       16750.5      
5750          223003        214844        206276        197743        189259        180842        139550        101743        69432.4       41875.1       16752.5      
5800          223012        214874        206328        197816        189354        180957        139743        101941        69564.4       41921.1       16754.7      
5850          223022        214904        206379        197889        189447        181070        139932        102137        69696         41968.1       16757        
5900          223031        214934        206430        197961        189540        181182        140119        102330        69827.2       42016         16759.5      
5950          223041        214964        206481        198032        189631        181293        140302        102521        69957.9       42064.7       16762.1      
6000          223050        214993        206531        198102        189721        181401        140483        102710        70088.1       42114.3       16764.9      
6050          223059        215022        206580        198171        189810        181509        140661        102897        70217.8       42164.6       16767.9      
6100          223069        215051        206629        198240        189897        181614        140836        103081        70347.1       42215.7       16770.9      
6150          223077        215079        206677        198307        189983        181718        141008        103263        70475.8       42267.5       16774.2      
6200          223086        215106        206724        198374        190068        181821        141178        103443        70603.9       42319.9       16777.5      
6250          223094        215131        206767        198434        190146        181918        141345        103621        70731.7       42373         16781        
6300          223102        215155        206808        198493        190223        182012        141510        103797        70858.8       42426.7       16784.6      
6350          223110        215182        206854        198557        190306        182115        141672        103971        70985.3       42480.9       16788.3      
6400          223118        215206        206895        198616        190382        182206        141832        104143        71111.3       42535.6       16792.1      
6450          223126        215230        206936        198674        190457        182297        141990        104313        71236.9       42591         16796.1      
6500          223133        215254        206977        198732        190531        182387        142145        104481        71361.5       42646.7       16800.1      
6550          223141        215278        207018        198789        190605        182477        142297        104647        71485.7       42702.9       16804.3      
6600          223148        215301        207059        198846        190678        182565        142448        104812        71609.6       42759.6       16808.5      
6650          223156        215325        207099        198903        190750        182652        142597        104974        71732.5       42816.6       16812.8      
6700          223164        215350        207142        198964        190827        182747        142743        105134        71854.6       42873.9       16817.2      
6750          223171        215373        207181        199018        190897        182830        142887        105293        71976.3       42931.6       16821.7      
6800          223178        215395        207219        199072        190966        182913        143030        105450        72097.5       42989.7       16826.3      
6850          223185        215416        207254        199121        191030        182992        143170        105605        72218         43048         16831        
6900          223192        215439        207294        199177        191101        183078        143309        105759        72337.6       43106.5       16835.7      
6950          223199        215460        207329        199227        191166        183157        143445        105911        72456.7       43165.3       16840.5      
7000          223205        215479        207362        199273        191226        183231        143581        106061        72575.3       43224.4       16845.4      
7050          223212        215500        207398        199325        191292        183311        143714        106210        72693.2       43283.7       16850.3      
7100          223218        215519        207431        199371        191351        183384        143845        106357        72810.4       43343.1       16855.3      
7150          223225        215540        207467        199421        191416        183462        143974        106502        72926.6       43402.6       16860.3      
7200          223231        215559        207499        199467        191474        183533        144102        106647        73042.6       43462.4       16865.4      
7250          223237        215579        207534        199516        191538        183609        144228        106789        73157.6       43522.2       16870.6      
7300          223244        215599        207569        199565        191600        183684        144352        106930        73271.8       43582         16875.8      
7350          223249        215618        207600        199609        191657        183755        144475        107069        73385.6       43642.1       16881        
7400          223255        215637        207632        199655        191716        183827        144597        107207        73498.6       43702.1       16886.3      
7450          223261        215655        207663        199698        191772        183895        144716        107344        73610.8       43762.2       16891.6      
7500          223266        215670        207689        199735        191819        183955        144835        107480        73723         43822.6       16897        
7550          223272        215688        207721        199780        191878        184025        144952        107613        73834         43882.9       16902.4      
7600          223278        215707        207752        199825        191935        184095        145067        107746        73944         43942.9       16907.8      
7650          223283        215724        207782        199866        191988        184161        145181        107877        74053.5       44003         16913.2      
7700          223288        215739        207807        199902        192035        184218        145294        108007        74162.7       44063.4       16918.7      
7750          223293        215756        207837        199944        192090        184284        145404        108135        74270.6       44123.3       16924.2      
7800          223298        215771        207863        199981        192137        184343        145514        108262        74378.5       44183.6       16929.8      
7850          223304        215788        207892        200023        192191        184407        145622        108388        74484.9       44243.4       16935.3      
7900          223309        215803        207918        200060        192238        184466        145730        108513        74591.5       44303.6       16940.9      
7950          223313        215819        207945        200097        192287        184525        145835        108636        74697         44363.4       16946.5      
8000          223319        215836        207974        200138        192339        184588        145940        108758        74801.5       44423.1       16952.1      
8050          223323        215849        207997        200171        192382        184643        146043        108880        74905.9       44482.9       16957.7      
8100          223328        215863        208021        200205        192426        184698        146146        109000        75009.5       44542.5       16963.3      
8150          223332        215879        208048        200243        192476        184757        146246        109118        75112         44601.8       16969        
8200          223337        215894        208074        200280        192523        184814        146346        109236        75214.2       44661.2       16974.6      
8250          223343        215911        208102        200320        192574        184874        146444        109352        75315.3       44720.2       16980.3      
8300          223348        215928        208131        200360        192625        184936        146541        109467        75415.7       44779.1       16985.9      
8350          223353        215942        208155        200394        192668        184987        146637        109581        75515.6       44837.9       16991.6      
8400          223357        215956        208180        200429        192712        185041        146733        109693        75614.7       44896.5       16997.2      
8450          223362        215971        208205        200464        192758        185096        146827        109805        75712.9       44954.7       17002.8      
8500          223366        215983        208225        200492        192794        185144        146921        109916        75811.2       45013.2       17008.5      
8550          223369        215994        208245        200521        192833        185193        147013        110026        75908.6       45071.3       17014.2      
8600          223374        216008        208268        200554        192876        185245        147104        110135        76005.1       45129.2       17019.8      
8650          223377        216019        208287        200581        192912        185291        147195        110243        76101.3       45187         17025.5      
8700          223381        216030        208306        200609        192948        185338        147285        110350        76196.9       45244.6       17031.1      
8750          223384        216041        208326        200637        192986        185385        147373        110457        76291.8       45302         17036.8      