# Probe 0 (0.0015 0.0015 0)
# Probe 1 (0.0015 0.0015 0.01)
# Probe 2 (0.0015 0.0015 0.02)
# Probe 3 (0.0015 0.0015 0.03)
# Probe 4 (0.0015 0.0015 0.04)
# Probe 5 (0.0015 0.0015 0.05)
# Probe 6 (0.0015 0.0015 0.06)
# Probe 7 (0.0015 0.0015 0.07)
# Probe 8 (0.0015 0.0015 0.08)
# Probe 9 (0.0015 0.0015 0.09)
# Probe 10 (0.0015 0.0015 0.1)
# Time        0             1             2             3             4             5             6             7             8             9             10           
50            (-2.76457e-11 -1.17099e-11 -4.99245e-11) (1.33313e-11 -7.13499e-11 1.22708e-09) (-4.58965e-11 1.4513e-10 1.6037e-09) (8.42564e-11 3.40356e-11 2.34417e-09) (-1.47014e-12 -4.73669e-11 2.93082e-09) (2.33131e-11 -6.70418e-11 5.16031e-09) (1.12887e-11 -2.06787e-11 5.16778e-09) (-1.28727e-14 -3.53707e-11 5.54912e-09) (6.96967e-12 -1.08083e-11 5.9307e-09) (1.21605e-11 -2.0094e-11 6.26505e-09) (-1.32547e-11 1.65313e-11 6.48866e-09)
100           (-3.33566e-11 -1.44315e-11 7.57547e-12) (-4.0096e-11 1.29019e-10 6.63749e-10) (-6.40889e-11 -6.54514e-11 9.45895e-10) (3.1163e-11 -4.2821e-11 2.04523e-09) (6.70528e-11 -5.334e-11 3.13112e-09) (-5.38819e-11 2.03318e-11 4.90151e-09) (-2.38773e-11 6.3262e-14 5.22523e-09) (3.38688e-13 -5.63449e-12 5.6305e-09) (-1.47798e-11 1.79595e-12 5.97675e-09) (-1.32133e-11 6.3006e-12 6.36246e-09) (-1.66933e-13 -1.54382e-11 6.44278e-09)
150           (-1.27005e-10 -4.29916e-11 5.94223e-11) (-4.88362e-11 3.86461e-11 9.1298e-10) (-7.01415e-11 -4.20522e-11 1.82769e-09) (-1.03137e-10 -6.98833e-11 2.68065e-09) (-6.38887e-11 5.49628e-12 3.08837e-09) (5.01929e-11 1.33199e-10 5.19563e-09) (-5.89141e-12 -2.22683e-11 5.5196e-09) (-3.76343e-13 -7.05598e-12 5.72307e-09) (2.66905e-11 1.28467e-11 6.00125e-09) (-1.49246e-11 5.43182e-12 6.33935e-09) (6.87186e-13 -5.06009e-13 6.6632e-09)
200           (2.15796e-11 -2.9679e-11 6.97099e-11) (1.00281e-10 -1.79447e-10 6.41669e-10) (4.16302e-11 -8.90163e-11 1.76221e-09) (-1.38761e-11 3.01884e-11 1.977e-09) (-7.63549e-12 -7.65615e-12 3.22854e-09) (-6.72128e-11 -6.92067e-11 5.85984e-09) (-1.01073e-11 -6.85681e-12 5.89838e-09) (-5.23557e-13 -4.17149e-12 6.19267e-09) (1.54892e-11 -6.96571e-12 6.47212e-09) (-1.97947e-12 5.01558e-13 6.79289e-09) (-1.57987e-11 8.41271e-12 6.88086e-09)
250           (-4.12162e-11 5.50923e-11 -7.29975e-11) (-3.19348e-12 -2.91625e-11 5.52152e-10) (-1.11857e-10 -3.04318e-11 1.34886e-09) (-2.37695e-11 1.98097e-12 2.03226e-09) (5.5211e-11 6.32577e-11 2.97622e-09) (4.26403e-11 4.04809e-11 5.6991e-09) (8.87913e-12 -7.29075e-12 5.78031e-09) (-7.76994e-13 6.67438e-12 6.04404e-09) (6.03146e-12 2.9636e-11 6.43405e-09) (3.57771e-12 1.81384e-13 6.74535e-09) (2.30913e-12 1.57585e-12 6.9807e-09)
300           (7.55139e-11 -9.44205e-11 -7.15262e-11) (9.79091e-11 -3.93051e-11 9.08801e-10) (1.0199e-10 2.82785e-11 1.83046e-09) (1.31703e-10 -5.79534e-11 2.65179e-09) (1.10482e-10 7.28432e-11 3.45576e-09) (-6.44698e-11 6.82162e-11 5.17679e-09) (-1.22294e-12 -3.44587e-12 5.40229e-09) (-2.05833e-11 -1.93236e-11 5.73673e-09) (-5.89847e-12 -4.79932e-12 6.15701e-09) (-6.08459e-12 1.37044e-12 6.49272e-09) (-1.6187e-11 -1.3231e-12 6.63796e-09)
350           (-4.60574e-12 4.46612e-11 -7.91356e-11) (-9.8728e-11 -1.1807e-10 9.52903e-10) (-1.35011e-10 6.73634e-11 1.72703e-09) (-4.04725e-11 -6.05851e-11 2.51315e-09) (8.28715e-11 8.07042e-11 3.52844e-09) (2.50919e-12 2.26647e-11 5.25062e-09) (-2.86977e-11 1.96065e-11 5.36055e-09) (-2.88151e-11 5.92746e-12 5.70677e-09) (-2.15672e-11 -2.04034e-11 6.04602e-09) (-5.10213e-12 1.45786e-11 6.407e-09) (-2.67024e-14 -1.00512e-12 6.46966e-09)
400           (-1.33558e-10 -3.14264e-11 8.17136e-11) (1.10227e-11 5.49969e-11 6.87324e-10) (1.10883e-10 -5.22862e-11 1.87171e-09) (6.51283e-11 3.56717e-11 2.73469e-09) (1.02383e-10 -7.17327e-11 3.10019e-09) (1.13565e-10 9.96181e-11 5.13653e-09) (1.20978e-11 -7.91133e-12 5.22493e-09) (7.05215e-12 2.29252e-11 5.59767e-09) (-1.29268e-11 2.25387e-11 6.03552e-09) (-1.19743e-12 5.88132e-12 6.21775e-09) (1.47235e-11 -1.27167e-12 6.42763e-09)
450           (-8.60896e-11 -6.63221e-11 2.21298e-10) (1.02048e-10 2.1728e-11 8.09302e-10) (-4.27806e-12 7.39608e-11 1.44808e-09) (-4.09662e-11 -7.50329e-11 2.29603e-09) (-1.99098e-12 6.38886e-11 2.57489e-09) (1.15195e-10 6.69361e-12 4.6752e-09) (-1.45793e-11 2.65323e-11 4.74249e-09) (1.46369e-11 -4.86971e-13 4.99688e-09) (1.32434e-11 -9.74431e-12 5.27599e-09) (1.33707e-12 5.49948e-12 5.5504e-09) (-1.36661e-11 -1.29735e-11 5.70859e-09)
500           (-4.79791e-11 2.79437e-11 -1.73519e-11) (1.51204e-10 5.52067e-11 4.46857e-10) (1.22763e-10 1.2724e-10 1.32905e-09) (6.26535e-12 8.75025e-11 2.19657e-09) (9.71527e-11 2.24112e-11 2.88922e-09) (-1.63448e-10 3.31046e-11 4.52204e-09) (2.16285e-11 -2.03277e-11 4.49816e-09) (-1.46679e-12 -1.81636e-12 4.78339e-09) (6.46879e-12 -1.00827e-11 5.12606e-09) (2.03188e-11 6.35406e-13 5.42235e-09) (-6.09426e-12 -1.54957e-11 5.54451e-09)
550           (-3.20131e-11 1.11374e-10 5.86235e-11) (-3.10922e-11 4.91538e-12 1.06127e-09) (3.49484e-11 1.78708e-10 1.85643e-09) (-2.04477e-11 1.27188e-10 3.16152e-09) (8.4538e-11 -2.38216e-11 4.35987e-09) (-2.69161e-11 -3.41863e-12 7.0251e-09) (1.31158e-11 2.11352e-11 6.83927e-09) (1.66861e-12 9.87187e-12 7.04263e-09) (1.25406e-11 -7.7095e-12 7.43006e-09) (-1.34808e-11 6.40941e-12 7.72871e-09) (1.26841e-12 9.85633e-12 7.89668e-09)
600           (-6.16179e-11 1.36429e-10 1.99362e-11) (3.22771e-11 9.769e-12 1.37301e-09) (6.87981e-11 -1.43698e-11 2.70928e-09) (1.04885e-10 1.39288e-10 2.94112e-09) (3.07619e-11 -6.01723e-11 3.93667e-09) (1.41071e-10 -4.11007e-11 5.78412e-09) (-2.32667e-11 -1.82591e-11 6.30408e-09) (-6.98459e-12 1.4073e-11 6.68333e-09) (-4.77929e-13 4.03081e-11 6.96974e-09) (2.6492e-12 8.37062e-12 7.23784e-09) (-2.23913e-11 -5.30566e-12 7.35613e-09)
650           (-3.40167e-11 2.69345e-11 1.05973e-10) (2.37625e-12 -1.24798e-10 3.5318e-10) (3.76874e-11 -1.52654e-10 1.40487e-09) (1.23294e-10 -1.29352e-11 2.62097e-09) (1.42709e-10 -8.23551e-11 3.16797e-09) (9.74951e-11 8.16529e-12 5.48024e-09) (-2.00487e-11 5.68375e-12 5.64419e-09) (-1.04899e-13 -2.79939e-11 5.98134e-09) (-3.54643e-11 -3.48514e-12 6.37106e-09) (-1.21662e-11 2.01464e-11 6.73391e-09) (-1.22146e-11 -4.67761e-12 7.05145e-09)
700           (-5.4281e-11 9.1285e-11 -5.11799e-11) (-8.20543e-11 -1.08638e-10 6.02579e-10) (9.02428e-11 -9.67409e-11 1.06621e-09) (7.11573e-11 7.77467e-12 1.89148e-09) (2.58452e-11 5.73192e-11 2.27221e-09) (1.37693e-10 6.27241e-11 4.19255e-09) (1.38569e-11 -1.10791e-12 4.46044e-09) (-8.10125e-12 1.78969e-12 4.76704e-09) (2.0421e-11 1.07718e-12 5.01364e-09) (-1.5035e-11 7.50061e-12 5.35166e-09) (-1.26413e-11 9.06365e-13 5.60588e-09)
750           (1.31124e-12 -9.98512e-11 4.90363e-11) (-3.24484e-11 -1.08142e-10 1.58621e-10) (1.52713e-10 4.09495e-11 1.44014e-09) (-3.7159e-12 -1.42858e-11 2.35043e-09) (1.01743e-10 -1.63429e-11 3.09472e-09) (-1.11339e-11 -6.5037e-11 5.43049e-09) (-1.24009e-12 2.08626e-11 5.4444e-09) (1.38429e-11 8.73038e-12 5.77971e-09) (7.79309e-12 -1.24673e-11 6.12873e-09) (2.87467e-11 -7.64909e-12 6.50084e-09) (-2.07209e-12 7.85952e-12 6.65266e-09)
800           (-4.99261e-11 -9.50661e-11 7.00151e-11) (-1.261e-11 -1.01928e-12 8.75289e-10) (7.89349e-11 5.00411e-11 1.50769e-09) (9.52471e-11 -1.13842e-10 2.30037e-09) (2.19218e-11 9.16105e-11 2.75929e-09) (6.83288e-12 -7.07985e-11 4.60151e-09) (-2.5388e-11 -5.94612e-12 4.74534e-09) (2.13443e-12 1.9822e-11 5.11477e-09) (8.02363e-12 2.16738e-11 5.41979e-09) (2.80995e-11 -1.66465e-13 5.72799e-09) (-6.66578e-12 -6.39753e-12 5.82693e-09)
850           (-8.77531e-11 5.24218e-11 -2.32163e-10) (9.09415e-11 2.57753e-11 4.63037e-10) (7.92577e-11 -7.44797e-11 1.28064e-09) (-1.34484e-11 -1.14958e-10 2.4818e-09) (1.10887e-10 -8.05404e-11 3.75274e-09) (6.22984e-11 -2.40338e-12 5.83036e-09) (8.62383e-12 8.7247e-12 5.78941e-09) (1.23116e-12 -1.49987e-11 6.1246e-09) (-1.52229e-11 -1.3837e-12 6.39532e-09) (1.23514e-11 -6.92639e-12 6.72531e-09) (1.55727e-11 2.31001e-12 6.93071e-09)
900           (-2.00044e-11 -6.16031e-11 2.65146e-11) (1.06254e-11 4.03395e-12 5.5392e-10) (-3.29533e-11 2.46269e-11 8.4012e-10) (1.38455e-10 1.70938e-11 1.72298e-09) (1.03906e-11 -1.27785e-10 2.74685e-09) (5.65121e-11 1.03879e-10 4.29656e-09) (-2.89441e-12 -6.52229e-12 4.38337e-09) (3.1618e-12 5.99157e-13 4.71587e-09) (-2.0447e-12 8.66938e-13 5.01523e-09) (1.89123e-11 -2.7174e-11 5.34256e-09) (-3.48883e-11 1.34196e-11 5.47123e-09)
950           (-4.17149e-11 -3.50318e-11 6.38295e-11) (3.59254e-11 3.51816e-11 3.91322e-10) (-1.95992e-11 -3.51958e-11 1.11457e-09) (-5.10132e-11 -1.27312e-10 1.73651e-09) (8.00287e-11 3.97346e-11 3.32385e-09) (3.32628e-12 -4.52345e-11 6.22253e-09) (-8.54079e-13 -1.46628e-11 6.15539e-09) (1.94423e-11 6.21051e-13 6.5378e-09) (-2.79079e-11 -2.62476e-11 6.88867e-09) (-1.49238e-11 -6.58906e-12 7.18154e-09) (-1.34342e-11 -3.39906e-13 7.49736e-09)
1000          (-1.21842e-10 -2.1204e-11 2.3009e-10) (2.50012e-11 2.46016e-11 6.45303e-10) (-5.47461e-11 5.40642e-11 1.53275e-09) (6.10014e-11 4.33495e-12 2.4701e-09) (4.0032e-11 3.07979e-11 3.11841e-09) (4.7139e-11 1.30128e-10 4.92378e-09) (-1.20501e-11 1.88537e-11 5.40665e-09) (4.10536e-11 5.35317e-12 5.78785e-09) (-1.38929e-11 -5.65862e-14 6.15586e-09) (1.45397e-11 -1.93075e-11 6.57383e-09) (1.34994e-11 8.97843e-12 6.6381e-09)
1050          (9.70596e-12 -1.00382e-10 -1.72039e-10) (6.39563e-11 -9.49605e-11 9.12593e-10) (2.03698e-10 1.39159e-11 1.6687e-09) (-2.73644e-11 -8.88271e-12 2.34875e-09) (2.55105e-11 -1.13276e-10 2.93779e-09) (-6.45558e-11 1.58877e-11 5.16267e-09) (1.89075e-11 1.8435e-12 5.18574e-09) (1.36933e-11 1.38881e-12 5.6069e-09) (4.29092e-12 5.45846e-12 5.84748e-09) (1.68547e-12 2.73376e-11 6.19382e-09) (1.20832e-11 5.89146e-12 6.28175e-09)
1100          (3.00705e-11 7.77896e-11 7.80685e-11) (-2.26185e-11 3.17897e-11 1.44977e-09) (-6.35734e-11 1.10522e-10 2.1807e-09) (-2.04992e-11 -5.30188e-11 2.92221e-09) (-1.23438e-12 -1.96425e-11 3.65519e-09) (-1.03975e-10 -1.06689e-10 5.42436e-09) (6.35962e-12 3.44001e-12 5.3602e-09) (-1.53548e-14 5.26335e-12 5.58303e-09) (5.42075e-13 1.16812e-11 5.94742e-09) (-4.31308e-12 -7.62487e-13 6.26811e-09) (7.45699e-12 7.40128e-12 6.4206e-09)
1150          (5.6453e-11 -5.30994e-11 8.40871e-11) (-7.31911e-11 -3.52075e-11 2.24546e-10) (-5.86481e-11 6.85756e-11 1.31568e-09) (-5.62553e-12 -1.44235e-11 2.12426e-09) (-6.7298e-11 -1.0558e-12 2.71059e-09) (1.13402e-12 1.32717e-10 3.65974e-09) (-9.16237e-13 8.86129e-13 3.80912e-09) (2.7889e-11 -5.65055e-12 4.18622e-09) (6.43172e-13 -6.43639e-13 4.55442e-09) (-2.0416e-11 -2.30612e-11 4.95731e-09) (-6.84419e-12 -8.459e-12 5.1023e-09)
1200          (-1.65116e-11 1.06906e-11 9.25928e-11) (-6.32898e-11 -1.63729e-10 9.78211e-10) (-1.59988e-10 3.35025e-13 1.15492e-09) (3.09551e-11 1.01436e-11 1.96013e-09) (1.06606e-12 3.63661e-11 3.02427e-09) (-6.46599e-11 7.76912e-11 5.23702e-09) (-2.26587e-11 -2.21054e-11 5.29207e-09) (-1.13692e-11 -8.25545e-12 5.56105e-09) (-8.12525e-12 -1.39108e-11 5.89779e-09) (2.09505e-11 7.04401e-12 6.16912e-09) (-2.95248e-11 1.31054e-12 6.28596e-09)
1250          (6.33067e-11 2.16765e-11 -9.75198e-11) (1.11297e-10 1.45431e-11 9.02049e-10) (4.56629e-11 -2.01109e-11 1.45079e-09) (-1.36752e-10 3.05659e-11 1.63159e-09) (-8.51749e-11 9.60948e-11 2.84869e-09) (1.49153e-10 4.32797e-12 4.80096e-09) (-2.01521e-12 -5.21819e-12 4.68894e-09) (-9.0302e-14 7.3903e-12 4.94962e-09) (6.1158e-12 -1.60142e-12 5.34492e-09) (2.25624e-12 -5.10419e-12 5.56461e-09) (-6.86742e-13 -1.86499e-11 5.69889e-09)
1300          (6.83406e-11 1.29842e-10 3.0882e-10) (5.26373e-11 -4.49595e-11 5.26519e-10) (8.28969e-12 -1.00621e-10 2.04171e-09) (-1.20446e-11 -5.73661e-11 2.17727e-09) (-1.94532e-11 -3.63272e-11 3.46411e-09) (2.88908e-11 6.61312e-11 5.7252e-09) (-7.54714e-12 2.84039e-11 5.96331e-09) (1.27522e-11 -2.56531e-11 6.27197e-09) (-9.36098e-12 -1.36707e-11 6.63163e-09) (1.48591e-11 1.67412e-11 6.91119e-09) (-1.49672e-11 7.43964e-12 7.06341e-09)
1350          (-3.40123e-11 -9.5813e-11 -5.90499e-11) (-1.03037e-10 -6.684e-11 2.04582e-10) (9.11507e-11 7.84047e-11 1.461e-09) (1.40312e-10 -1.05557e-10 2.26739e-09) (1.12076e-10 8.32089e-11 2.76882e-09) (-1.12897e-10 -8.20344e-11 4.12647e-09) (5.41105e-12 6.98092e-12 4.36702e-09) (1.15841e-11 1.26141e-11 4.64447e-09) (8.157e-12 1.46077e-11 5.01021e-09) (-1.91979e-11 -1.48022e-11 5.29356e-09) (-1.6336e-12 -1.229e-11 5.50602e-09)
1400          (-3.76071e-11 -9.98222e-11 7.73973e-11) (5.59096e-11 8.86215e-11 1.29733e-09) (1.06795e-11 2.49838e-12 2.03998e-09) (-2.26683e-11 -2.73374e-11 2.76474e-09) (-6.14742e-11 -7.73606e-12 3.38331e-09) (-1.04502e-11 -1.0226e-10 4.95366e-09) (-4.51274e-12 7.17735e-12 5.34622e-09) (-8.7432e-12 1.29372e-11 5.66725e-09) (-5.6399e-12 5.41492e-12 6.05344e-09) (-7.75416e-12 2.00956e-11 6.38247e-09) (-1.63527e-11 2.75296e-11 6.42427e-09)
1450          (8.29629e-12 6.21714e-11 1.3933e-10) (2.13812e-10 1.22831e-10 3.76272e-10) (-1.36563e-10 -1.34824e-10 1.02348e-09) (4.84052e-11 8.6525e-11 2.4699e-09) (2.4755e-11 -7.47724e-13 2.78502e-09) (-8.89035e-11 -1.17703e-10 4.83074e-09) (-9.63029e-12 -6.0486e-12 4.85551e-09) (-1.13875e-11 -1.86552e-11 5.23686e-09) (-6.73948e-12 -6.89204e-12 5.56856e-09) (1.93843e-11 -1.97811e-12 5.89671e-09) (-7.0471e-13 4.80541e-13 6.08231e-09)
1500          (-1.02666e-10 -6.10087e-11 -1.09224e-10) (-1.02601e-10 -5.38721e-11 4.87693e-10) (-7.31235e-11 4.33433e-11 1.92398e-09) (1.71755e-10 -2.09434e-11 3.18538e-09) (9.89772e-11 -1.5654e-11 4.51505e-09) (-2.0152e-11 6.88919e-11 7.07586e-09) (-2.52686e-12 -9.95359e-13 7.34833e-09) (-8.55141e-12 -2.66288e-11 7.7281e-09) (6.05497e-12 -2.21077e-12 8.09875e-09) (8.26383e-12 -8.94199e-12 8.5491e-09) (-1.87604e-11 1.52837e-13 8.75802e-09)
1550          (-5.76857e-11 1.40954e-11 5.91352e-12) (1.79893e-11 -2.87902e-11 5.17777e-10) (-1.01775e-10 8.52756e-11 1.48047e-09) (4.87833e-11 -1.0222e-10 2.13795e-09) (5.8905e-11 5.30483e-11 2.64112e-09) (7.92983e-11 3.72411e-11 4.23018e-09) (-7.67993e-13 7.38872e-13 4.37353e-09) (-3.68803e-13 8.07637e-12 4.7589e-09) (-7.65022e-12 6.11623e-12 5.10933e-09) (-1.35926e-11 1.29155e-11 5.41445e-09) (6.50438e-12 -7.23134e-12 5.54596e-09)
1600          (-4.08513e-11 2.65284e-11 2.66664e-11) (-3.66498e-11 -8.70239e-11 7.23434e-10) (4.37048e-11 4.07743e-11 1.82839e-09) (2.83758e-11 -5.28776e-12 2.50006e-09) (-6.57052e-11 4.32692e-11 2.92252e-09) (5.88579e-11 4.2761e-12 5.08305e-09) (1.60278e-12 -7.35094e-12 5.25133e-09) (1.46433e-12 -1.23279e-11 5.61769e-09) (-1.38185e-11 7.00498e-12 5.92532e-09) (-1.37963e-11 3.39101e-11 6.2608e-09) (1.82024e-11 2.09811e-11 6.40074e-09)
1650          (2.45164e-11 -3.12206e-11 -7.03831e-11) (1.01498e-12 1.39873e-10 5.7161e-10) (3.41165e-11 -8.67427e-11 1.60933e-09) (4.19454e-11 -5.80281e-11 2.14689e-09) (1.41902e-11 8.9366e-11 2.80827e-09) (-4.46228e-11 2.54607e-11 4.93109e-09) (8.0584e-12 -1.57736e-11 5.29432e-09) (-7.39597e-12 -5.20877e-13 5.59545e-09) (1.27995e-11 -7.93059e-12 6.00637e-09) (1.2327e-11 1.32544e-11 6.28674e-09) (-1.51871e-11 -1.38336e-11 6.43216e-09)
1700          (7.47791e-11 -1.9163e-11 -3.3421e-11) (-1.54184e-10 1.2786e-10 8.66175e-10) (1.86812e-10 -2.05702e-10 1.18151e-09) (-7.11193e-11 7.86843e-11 1.96246e-09) (4.93502e-11 3.48353e-11 2.72978e-09) (2.10605e-11 1.81746e-10 4.96021e-09) (6.56962e-13 2.02395e-13 5.2842e-09) (2.43855e-11 1.25579e-11 5.56421e-09) (1.50448e-13 -2.77559e-11 5.86706e-09) (1.24717e-11 1.26602e-11 6.10277e-09) (-3.14064e-12 -1.33589e-11 6.38018e-09)
1750          (2.01297e-11 -2.32515e-11 1.64849e-10) (2.96614e-12 7.5115e-11 9.35189e-10) (5.6581e-11 -4.87581e-11 2.02933e-09) (-1.76227e-11 -2.55861e-12 3.10212e-09) (1.70223e-11 -5.56907e-11 3.8258e-09) (-1.9923e-11 4.27757e-11 6.68417e-09) (-2.80862e-12 1.60501e-11 6.72402e-09) (-1.37695e-11 1.35211e-11 6.88621e-09) (4.88121e-12 1.63646e-12 7.14954e-09) (3.36936e-11 2.04574e-11 7.38584e-09) (-1.50393e-11 -1.98022e-11 7.76677e-09)
1800          (3.5553e-11 1.612e-11 2.15517e-11) (-9.34796e-11 -5.48356e-11 9.71598e-10) (1.18087e-11 -7.19981e-11 1.9827e-09) (2.47858e-11 -6.69124e-12 2.29031e-09) (1.0928e-10 -6.20782e-11 3.04552e-09) (-4.31417e-11 1.33683e-11 5.04455e-09) (-1.01305e-12 -6.42532e-12 4.95992e-09) (2.12593e-11 1.28812e-11 5.27696e-09) (7.57583e-12 1.48604e-11 5.6466e-09) (6.78512e-12 1.64275e-12 5.91981e-09) (-6.68751e-12 8.60165e-12 6.1077e-09)
1850          (8.29288e-11 -4.88102e-11 -5.85922e-11) (1.34551e-10 2.92893e-11 4.52512e-10) (6.05146e-12 -2.60172e-11 1.84056e-09) (-1.20393e-10 -4.05824e-11 2.48435e-09) (3.63808e-11 7.0047e-11 3.04524e-09) (6.70555e-11 -6.79343e-11 6.1423e-09) (-2.01116e-11 -7.79588e-12 6.25039e-09) (-1.20414e-11 -3.79586e-12 6.60806e-09) (9.71064e-12 4.73152e-13 6.88402e-09) (8.11149e-13 -9.90181e-12 7.22998e-09) (6.59212e-12 -9.07004e-13 7.40548e-09)
1900          (-6.41899e-11 -9.16578e-11 2.04009e-11) (-9.61288e-11 1.74326e-10 6.83501e-10) (-2.73082e-11 6.51854e-11 1.642e-09) (-4.24036e-11 -1.46602e-10 2.37371e-09) (-2.52556e-11 2.21655e-11 2.98154e-09) (-3.75889e-11 2.50701e-11 6.36087e-09) (8.26394e-12 -1.40023e-11 6.38968e-09) (-6.62666e-12 -1.28867e-11 6.66554e-09) (-1.51082e-12 6.93848e-12 6.94566e-09) (1.67741e-11 1.1991e-11 7.28435e-09) (-2.5563e-12 8.70184e-12 7.41315e-09)
1950          (-1.96192e-11 -1.70607e-10 -1.55738e-10) (-3.83259e-11 3.86881e-11 9.02725e-10) (-4.65631e-11 3.56675e-11 2.11422e-09) (-2.96555e-11 8.21369e-11 2.37114e-09) (1.23175e-11 8.34718e-11 3.70024e-09) (7.13021e-12 6.19675e-12 5.77556e-09) (-1.86992e-12 1.42675e-11 6.02001e-09) (-6.33771e-12 1.20059e-11 6.32358e-09) (-8.09801e-12 -2.04921e-11 6.66182e-09) (3.43466e-11 -2.76442e-11 7.10857e-09) (-1.23917e-11 -2.04608e-11 7.23464e-09)
2000          (-9.64454e-11 2.85599e-11 -3.63352e-11) (4.48104e-11 -1.03632e-10 5.46995e-10) (-1.548e-10 -6.93508e-12 1.48979e-09) (9.85988e-11 9.42729e-11 2.55792e-09) (-2.69697e-11 -2.78026e-11 3.92212e-09) (5.87647e-11 -8.53244e-11 5.88303e-09) (1.46884e-11 1.24137e-11 5.8188e-09) (-2.05142e-11 2.48499e-12 6.16805e-09) (-6.41044e-12 -1.19787e-11 6.5015e-09) (7.16486e-12 -8.90268e-13 6.80298e-09) (-1.24763e-11 4.63641e-13 7.06291e-09)
2050          (-7.09449e-11 1.05556e-10 1.47908e-10) (-2.92926e-11 -4.2904e-11 6.53104e-10) (2.99117e-11 -7.64488e-11 1.37723e-09) (-1.12577e-10 3.32489e-11 2.06906e-09) (-9.40459e-11 7.70071e-11 3.15948e-09) (9.86049e-11 -9.63539e-11 5.13795e-09) (-1.87606e-11 -2.21711e-11 5.16356e-09) (4.5099e-12 -7.7915e-12 5.60009e-09) (-5.32716e-13 8.74803e-12 6.05038e-09) (7.45075e-13 8.11694e-12 6.42595e-09) (-1.27994e-11 1.03694e-11 6.56952e-09)
2100          (-1.36279e-11 1.12777e-10 2.34719e-11) (-3.15906e-11 1.55163e-10 7.39205e-10) (1.78809e-11 -4.78567e-11 1.82364e-09) (-9.52747e-11 -8.47175e-11 2.6665e-09) (1.07277e-10 2.59391e-11 3.90986e-09) (4.46083e-11 -3.41005e-11 6.37098e-09) (-6.25715e-13 7.03623e-12 6.41212e-09) (2.7733e-11 1.35545e-11 6.62328e-09) (-1.01209e-11 -2.06534e-11 6.86194e-09) (5.58193e-12 8.22561e-12 7.17233e-09) (1.84721e-12 -1.98006e-11 7.42029e-09)
2150          (-3.14551e-11 -3.93875e-11 6.04881e-11) (-1.48116e-10 -3.69001e-12 7.5823e-10) (-7.07541e-11 3.04919e-11 1.26754e-09) (4.26791e-12 -6.92906e-11 2.55097e-09) (-3.69527e-11 -3.78827e-11 3.15713e-09) (7.68612e-11 -2.89395e-11 5.67145e-09) (-9.28342e-13 -2.92403e-11 5.62206e-09) (1.42252e-11 8.80928e-12 5.95632e-09) (-1.58751e-11 2.96921e-13 6.22611e-09) (-2.39776e-14 -2.9745e-11 6.56923e-09) (-1.3309e-11 -7.75327e-14 6.77763e-09)
2200          (3.49558e-11 -3.33024e-11 1.64242e-11) (1.07185e-10 -8.58007e-11 4.9039e-10) (1.11107e-11 8.09556e-11 8.4172e-10) (-6.89486e-11 -1.04951e-10 1.76813e-09) (7.42595e-11 -1.76367e-10 2.53538e-09) (1.05595e-10 -1.63665e-10 4.26165e-09) (1.32806e-12 -1.44434e-11 4.28533e-09) (1.47469e-12 -2.60561e-11 4.55179e-09) (2.74157e-11 -6.78169e-12 4.80576e-09) (1.18076e-11 1.53497e-11 5.2021e-09) (8.92292e-12 2.37816e-11 5.29943e-09)
2250          (5.43383e-11 1.09383e-10 -1.7148e-10) (1.28705e-10 -6.11491e-11 6.59866e-10) (-1.76341e-10 -9.43139e-11 1.12327e-09) (9.54365e-11 9.40033e-11 2.58883e-09) (1.76957e-10 -4.891e-11 2.50006e-09) (-8.70203e-11 6.0833e-12 4.7793e-09) (-3.27454e-11 -2.60619e-11 5.07691e-09) (-1.48205e-12 -1.48099e-12 5.4699e-09) (5.97995e-12 -1.6604e-12 5.81116e-09) (-1.36731e-11 -9.2436e-12 6.08804e-09) (3.48952e-11 2.0487e-11 6.37369e-09)
2300          (6.31931e-11 5.759e-11 -5.99035e-11) (5.0458e-11 3.83933e-11 7.07647e-10) (-5.61228e-11 1.09708e-10 1.68781e-09) (6.80768e-11 -6.05887e-12 2.01415e-09) (9.10448e-11 7.81959e-11 3.40464e-09) (-7.22629e-11 -9.44948e-12 5.74959e-09) (-1.49169e-12 -6.23299e-12 5.70782e-09) (1.36091e-11 -2.62035e-11 6.08309e-09) (-9.79161e-13 -6.34392e-12 6.34451e-09) (1.50583e-11 8.34159e-12 6.67995e-09) (-1.34858e-11 4.82612e-12 6.75995e-09)
2350          (2.56061e-11 1.42935e-10 -7.00526e-11) (-2.8787e-11 -2.13821e-11 9.05741e-10) (-3.00756e-11 -6.48166e-11 1.23477e-09) (-8.43951e-11 7.17868e-11 2.1042e-09) (-5.07064e-11 4.57333e-11 2.49006e-09) (-7.17565e-11 -1.40695e-10 4.61448e-09) (6.10681e-12 1.20618e-11 4.59926e-09) (1.36224e-12 2.74267e-12 5.01255e-09) (-2.1737e-11 -2.14331e-11 5.31676e-09) (-1.46968e-11 -2.14615e-11 5.76918e-09) (-2.76845e-11 8.85541e-12 5.98017e-09)
2400          (2.06811e-11 -1.01991e-10 -2.69744e-10) (3.88794e-11 2.83659e-11 7.75928e-10) (-8.31877e-11 -2.36809e-10 1.52058e-09) (2.89915e-11 -7.55541e-11 3.03168e-09) (5.90054e-12 5.01237e-13 3.62058e-09) (1.34307e-10 4.58412e-11 5.65395e-09) (-1.44625e-12 1.4649e-11 5.97135e-09) (-2.11868e-11 -3.76458e-12 6.28017e-09) (-4.40116e-12 1.19067e-11 6.67997e-09) (1.28832e-11 1.02854e-11 6.99374e-09) (4.52013e-12 6.93036e-12 7.14837e-09)
2450          (-7.56515e-14 -6.63031e-11 -5.12156e-11) (-2.21986e-11 -4.12853e-11 9.53845e-10) (-6.45343e-11 -6.14561e-11 2.68784e-09) (7.43264e-11 -7.49647e-11 2.95064e-09) (-1.10919e-10 6.70025e-11 3.89316e-09) (4.4991e-11 -1.93929e-11 6.07303e-09) (8.20113e-12 8.17119e-12 6.10562e-09) (-1.45822e-12 -1.53434e-11 6.5408e-09) (-7.39962e-12 7.42717e-13 6.76602e-09) (-1.30721e-11 1.19278e-11 7.14847e-09) (-2.39991e-11 -6.84841e-12 7.28114e-09)
2500          (-5.93076e-11 -3.21372e-11 1.29218e-10) (-3.77188e-11 -9.82075e-11 3.68653e-10) (1.0643e-10 -5.37417e-11 1.37874e-09) (-1.41424e-10 -3.62014e-11 2.17357e-09) (-2.64698e-11 -5.28398e-11 2.97394e-09) (6.87914e-13 -1.84292e-12 4.98195e-09) (-2.39609e-12 1.0192e-12 5.0471e-09) (-9.50076e-12 1.27077e-11 5.33888e-09) (-1.39265e-11 -1.3465e-12 5.63012e-09) (-1.31376e-11 -1.26629e-11 6.04446e-09) (-5.55326e-12 6.90051e-12 6.27205e-09)
2550          (-1.04417e-10 -1.79229e-11 1.24654e-10) (1.15433e-10 6.6766e-11 2.99511e-10) (9.3887e-11 -1.04746e-10 9.40959e-10) (7.2604e-11 -1.73253e-10 2.11226e-09) (-9.96331e-11 -4.13426e-11 2.34822e-09) (-3.11213e-11 8.91478e-12 4.78737e-09) (1.37672e-11 2.2016e-11 4.84175e-09) (-8.58655e-12 -2.07627e-11 5.20857e-09) (-5.85833e-12 6.69004e-12 5.51824e-09) (1.26348e-11 -9.21887e-13 5.92984e-09) (-1.28069e-13 -1.15005e-11 6.10526e-09)
2600          (-3.74324e-11 2.14472e-11 2.84572e-12) (-8.0262e-12 -1.5655e-10 4.79022e-10) (-6.69367e-11 -1.97758e-11 1.08922e-09) (-2.19605e-12 8.96614e-12 1.80422e-09) (1.00863e-10 6.89501e-11 3.20977e-09) (-3.33779e-11 -7.56802e-11 4.96441e-09) (-2.17814e-11 1.37137e-11 5.16445e-09) (-2.25439e-11 -8.36986e-12 5.62552e-09) (-3.3573e-11 -1.42428e-11 5.95495e-09) (1.41069e-11 2.55324e-11 6.28802e-09) (-5.74926e-13 -9.34525e-12 6.52599e-09)
2650          (-7.91108e-12 -8.41417e-11 2.30877e-11) (-8.37681e-12 -2.55824e-11 3.99583e-10) (2.79613e-11 1.50314e-11 1.31504e-09) (-7.24455e-12 -1.48525e-11 2.48444e-09) (-8.2105e-11 4.30794e-11 3.0436e-09) (7.07343e-11 2.83073e-11 5.20052e-09) (-9.23933e-12 1.34722e-11 5.25862e-09) (-7.609e-12 -1.4876e-11 5.54613e-09) (7.62998e-12 -1.21217e-11 5.82874e-09) (7.07394e-13 1.71173e-13 6.11933e-09) (-6.95376e-12 -7.45036e-12 6.29115e-09)
2700          (7.95839e-11 -5.9625e-11 -6.583e-11) (1.27698e-10 -1.50512e-12 6.64494e-10) (-8.24905e-12 -4.11906e-11 1.78041e-09) (6.59873e-11 -1.34018e-11 1.99687e-09) (5.3612e-11 -3.71357e-11 3.07765e-09) (2.64756e-11 3.85065e-11 4.88512e-09) (8.19445e-12 -7.43954e-12 4.91374e-09) (-1.52645e-12 -1.78903e-12 5.19059e-09) (-2.09473e-11 2.29167e-11 5.6568e-09) (1.18978e-12 9.3306e-12 5.91215e-09) (-7.4941e-12 -2.15575e-12 6.03883e-09)
2750          (7.8865e-13 -3.78378e-11 -1.16728e-11) (-7.47353e-12 -4.88428e-11 9.13637e-10) (7.37286e-11 3.39835e-11 2.16534e-09) (2.92972e-12 -6.0064e-11 2.54781e-09) (-4.1529e-12 1.47631e-10 3.35917e-09) (-1.10795e-10 6.4861e-11 6.08219e-09) (7.57748e-12 1.79038e-12 6.25131e-09) (-7.49854e-12 -1.44318e-11 6.62981e-09) (6.68553e-12 -1.26244e-11 6.93753e-09) (-1.357e-11 -1.15545e-11 7.26811e-09) (-6.75845e-12 -1.32958e-11 7.42339e-09)
2800          (6.27216e-11 6.01729e-11 -3.11566e-11) (-1.34118e-10 5.05397e-11 5.81091e-10) (1.9355e-11 -3.34273e-13 1.12113e-09) (6.45044e-11 -6.54634e-11 1.78194e-09) (-3.71076e-11 1.97172e-11 2.39343e-09) (-4.50054e-11 1.90414e-10 3.93505e-09) (1.31518e-12 -1.36969e-11 4.07908e-09) (1.47436e-11 -1.36233e-11 4.58249e-09) (1.10841e-11 7.79844e-13 4.96948e-09) (-1.34051e-11 7.21364e-13 5.24226e-09) (-1.0469e-12 3.03821e-11 5.45253e-09)
2850          (-1.09395e-10 -5.83525e-12 -4.08882e-11) (-3.24381e-11 -4.48793e-11 4.51307e-10) (-1.4606e-10 2.00796e-11 1.95363e-09) (-7.36105e-11 -2.62315e-11 2.23601e-09) (-2.66248e-11 -3.69026e-12 2.9868e-09) (-1.71525e-11 -5.92327e-12 5.06101e-09) (1.80798e-12 -5.39622e-13 5.1237e-09) (-4.48482e-14 -1.96527e-11 5.47339e-09) (1.54645e-11 -2.96579e-11 5.84619e-09) (-1.86677e-11 9.11496e-12 6.13765e-09) (-4.94248e-12 3.59723e-12 6.29065e-09)
2900          (-3.22456e-11 -2.13284e-12 1.34245e-10) (-1.40887e-10 -1.33621e-10 4.68505e-10) (1.49111e-10 -2.70831e-11 1.42169e-09) (1.16905e-10 1.0225e-10 2.34306e-09) (-7.73729e-11 7.2639e-11 3.85011e-09) (-6.89244e-11 8.8204e-12 6.08823e-09) (1.72462e-12 -1.70526e-11 6.35507e-09) (-1.13307e-11 -2.22955e-13 6.59734e-09) (5.17566e-12 2.70985e-11 6.95668e-09) (5.66934e-13 -5.23026e-12 7.33679e-09) (1.38151e-12 1.67167e-11 7.41165e-09)
2950          (-6.12698e-11 -5.07737e-11 7.08687e-11) (6.37739e-11 1.0935e-10 3.50155e-10) (-1.01657e-10 1.06551e-10 1.10451e-09) (1.43036e-10 6.84533e-11 2.2014e-09) (-2.44588e-11 -6.73378e-12 3.13954e-09) (-1.09044e-12 1.17744e-10 5.22722e-09) (1.29662e-11 -7.42145e-12 5.4018e-09) (-1.33778e-11 -4.2085e-13 5.74464e-09) (7.99181e-12 -6.44995e-12 6.16345e-09) (7.16972e-12 -8.65897e-12 6.42092e-09) (9.55936e-14 -3.92446e-11 6.58904e-09)
3000          (6.43469e-11 4.47132e-11 6.48103e-12) (6.27346e-11 1.05069e-10 6.82273e-10) (1.88725e-12 -2.36157e-11 1.7245e-09) (-4.75438e-11 6.30096e-11 2.67848e-09) (-3.5079e-11 -4.75798e-12 3.56838e-09) (-9.76439e-11 -5.75124e-11 5.83506e-09) (1.51286e-11 -6.74427e-12 5.76908e-09) (2.01133e-11 -2.82897e-11 5.94645e-09) (8.08905e-12 6.21023e-12 6.38253e-09) (4.29988e-12 5.54427e-13 6.75384e-09) (-4.11486e-12 8.97287e-12 7.05873e-09)
3050          (2.76823e-12 2.22315e-12 1.42043e-10) (-1.35148e-10 1.33182e-10 5.63051e-10) (-5.3571e-11 4.30871e-11 1.29138e-09) (6.16263e-11 -2.3155e-11 2.10878e-09) (1.05161e-10 -4.92217e-11 2.61884e-09) (3.26985e-12 1.70358e-11 4.3849e-09) (6.18322e-14 -1.14253e-11 4.7596e-09) (4.25269e-12 -1.26661e-12 5.02418e-09) (-1.96964e-11 -1.97414e-11 5.32507e-09) (-1.71501e-12 1.4516e-12 5.62725e-09) (1.99506e-12 1.10041e-13 5.79893e-09)
3100          (7.7937e-11 1.39884e-10 7.60348e-11) (-5.71814e-12 -8.84938e-11 8.71435e-10) (3.69786e-11 -4.56639e-11 1.80611e-09) (-1.12731e-10 -9.50909e-11 2.66526e-09) (-1.63507e-11 4.99528e-11 3.30486e-09) (-2.77502e-11 3.9553e-11 5.79032e-09) (-7.47207e-12 2.68294e-11 6.03131e-09) (-1.49699e-11 6.04967e-12 6.21492e-09) (1.43727e-11 -9.55013e-15 6.62108e-09) (-1.3598e-11 1.59754e-11 6.92375e-09) (1.36095e-12 8.21553e-12 7.03932e-09)
3150          (-7.52968e-11 3.97306e-11 2.61722e-10) (1.07906e-10 9.38443e-11 1.44517e-09) (1.19593e-10 1.76269e-11 2.52695e-09) (-1.01612e-11 8.01616e-12 3.1655e-09) (-8.15126e-12 -1.00828e-10 4.10802e-09) (-5.97648e-11 7.6726e-12 6.56424e-09) (3.4201e-11 -6.66787e-12 6.77863e-09) (1.57702e-11 4.87919e-13 7.22125e-09) (-4.28909e-11 1.26051e-11 7.60162e-09) (-6.89978e-12 2.89522e-13 7.89366e-09) (-1.95634e-12 6.91623e-12 8.16994e-09)
3200          (2.79957e-11 -9.86546e-11 -1.61878e-10) (-9.76156e-11 9.92816e-11 6.25023e-10) (-1.9159e-11 6.53543e-11 1.42748e-09) (-3.21992e-11 -3.95195e-11 1.96762e-09) (8.9225e-12 -3.1631e-11 2.95679e-09) (-3.92945e-11 -6.24066e-11 4.70055e-09) (-5.55007e-13 -8.59601e-12 4.92361e-09) (-1.60891e-13 7.32543e-12 5.28293e-09) (-2.6763e-11 1.88906e-11 5.58525e-09) (-1.38825e-11 3.39472e-11 5.91482e-09) (1.51906e-11 7.3489e-12 6.02763e-09)
3250          (2.39273e-11 1.2578e-10 -2.94423e-10) (4.68549e-11 -5.61579e-11 1.14686e-10) (2.60574e-11 6.39266e-11 7.92764e-10) (1.23204e-10 -2.64452e-11 1.52601e-09) (-3.2096e-11 -1.77938e-11 2.06739e-09) (1.47243e-11 5.5949e-11 4.78689e-09) (-1.9073e-11 2.09809e-11 4.75256e-09) (2.20542e-12 -7.6043e-14 4.9916e-09) (1.32479e-13 -1.17835e-11 5.39932e-09) (1.27322e-12 -8.3442e-12 5.65001e-09) (7.29489e-12 6.07299e-13 6.01795e-09)
3300          (1.37802e-11 -5.59482e-12 1.28017e-10) (-2.20857e-10 3.95778e-11 9.75935e-10) (-4.03415e-11 1.05764e-10 2.04045e-09) (-2.51008e-11 6.41777e-11 3.1216e-09) (-2.11683e-11 3.04118e-11 3.61633e-09) (8.08662e-11 -4.81438e-11 6.05149e-09) (4.43107e-11 2.35158e-11 6.23043e-09) (1.93669e-11 7.66149e-12 6.58231e-09) (7.26091e-12 1.26037e-11 6.84854e-09) (-6.49635e-13 -1.62833e-13 7.19547e-09) (2.79421e-11 -7.64424e-12 7.32268e-09)
3350          (-3.21847e-12 -9.01483e-11 -6.5151e-11) (8.17086e-11 -9.16718e-11 4.11706e-10) (4.59982e-11 1.4679e-10 1.7566e-09) (3.74654e-12 -1.22467e-10 2.0178e-09) (-8.80327e-11 -2.97264e-11 3.14952e-09) (9.42551e-11 -7.66908e-12 5.06266e-09) (-7.64738e-12 4.99716e-12 5.11751e-09) (1.55795e-11 -1.35257e-11 5.40542e-09) (1.92442e-11 3.42556e-14 5.68715e-09) (2.36751e-11 2.68432e-11 6.00794e-09) (6.6478e-12 -2.298e-11 6.25556e-09)