# Probe 0 (0.0015 0.0015 0)
# Probe 1 (0.0015 0.0015 0.002)
# Probe 2 (0.0015 0.0015 0.004)
# Probe 3 (0.0015 0.0015 0.006)
# Probe 4 (0.0015 0.0015 0.008)
# Probe 5 (0.0015 0.0015 0.01)
# Probe 6 (0.0015 0.0015 0.012)
# Probe 7 (0.0015 0.0015 0.014)
# Probe 8 (0.0015 0.0015 0.016)
# Probe 9 (0.0015 0.0015 0.018)
# Probe 10 (0.0015 0.0015 0.02)
# Time        0             1             2             3             4             5             6             7             8             9             10           
50            (523102 -126534 -1.58978e+07) (523102 -126534 -1.58978e+07) (523102 -126534 -1.58978e+07) (523102 -126534 -1.58978e+07) (523102 -126534 -1.58978e+07) (523102 -126534 -1.58978e+07) (12584.9 974.538 -2.05584e+06) (12584.9 974.538 -2.05584e+06) (12584.9 974.538 -2.05584e+06) (12584.9 974.538 -2.05584e+06) (12584.9 974.538 -2.05584e+06)
100           (827992 -221712 -1.41131e+07) (827992 -221712 -1.41131e+07) (827992 -221712 -1.41131e+07) (827992 -221712 -1.41131e+07) (827992 -221712 -1.41131e+07) (827992 -221712 -1.41131e+07) (39151 -44017.9 -4.63694e+06) (39151 -44017.9 -4.63694e+06) (39151 -44017.9 -4.63694e+06) (39151 -44017.9 -4.63694e+06) (39151 -44017.9 -4.63694e+06)
150           (1.07722e+06 -217455 -1.24464e+07) (1.07722e+06 -217455 -1.24464e+07) (1.07722e+06 -217455 -1.24464e+07) (1.07722e+06 -217455 -1.24464e+07) (1.07722e+06 -217455 -1.24464e+07) (1.07722e+06 -217455 -1.24464e+07) (180833 -102296 -6.524e+06) (180833 -102296 -6.524e+06) (180833 -102296 -6.524e+06) (180833 -102296 -6.524e+06) (180833 -102296 -6.524e+06)
200           (1.19484e+06 -243191 -1.11247e+07) (1.19484e+06 -243191 -1.11247e+07) (1.19484e+06 -243191 -1.11247e+07) (1.19484e+06 -243191 -1.11247e+07) (1.19484e+06 -243191 -1.11247e+07) (1.19484e+06 -243191 -1.11247e+07) (355049 -123754 -7.76117e+06) (355049 -123754 -7.76117e+06) (355049 -123754 -7.76117e+06) (355049 -123754 -7.76117e+06) (355049 -123754 -7.76117e+06)
250           (1.24985e+06 -257194 -1.02452e+07) (1.24985e+06 -257194 -1.02452e+07) (1.24985e+06 -257194 -1.02452e+07) (1.24985e+06 -257194 -1.02452e+07) (1.24985e+06 -257194 -1.02452e+07) (1.24985e+06 -257194 -1.02452e+07) (466795 -126293 -8.52452e+06) (466795 -126293 -8.52452e+06) (466795 -126293 -8.52452e+06) (466795 -126293 -8.52452e+06) (466795 -126293 -8.52452e+06)
300           (1.27934e+06 -263461 -9.73901e+06) (1.27934e+06 -263461 -9.73901e+06) (1.27934e+06 -263461 -9.73901e+06) (1.27934e+06 -263461 -9.73901e+06) (1.27934e+06 -263461 -9.73901e+06) (1.27934e+06 -263461 -9.73901e+06) (526126 -133676 -8.96056e+06) (526126 -133676 -8.96056e+06) (526126 -133676 -8.96056e+06) (526126 -133676 -8.96056e+06) (526126 -133676 -8.96056e+06)
350           (1.29489e+06 -266525 -9.48109e+06) (1.29489e+06 -266525 -9.48109e+06) (1.29489e+06 -266525 -9.48109e+06) (1.29489e+06 -266525 -9.48109e+06) (1.29489e+06 -266525 -9.48109e+06) (1.29489e+06 -266525 -9.48109e+06) (555004 -140299 -9.18494e+06) (555004 -140299 -9.18494e+06) (555004 -140299 -9.18494e+06) (555004 -140299 -9.18494e+06) (555004 -140299 -9.18494e+06)
400           (1.30249e+06 -267988 -9.35951e+06) (1.30249e+06 -267988 -9.35951e+06) (1.30249e+06 -267988 -9.35951e+06) (1.30249e+06 -267988 -9.35951e+06) (1.30249e+06 -267988 -9.35951e+06) (1.30249e+06 -267988 -9.35951e+06) (568257 -143743 -9.29177e+06) (568257 -143743 -9.29177e+06) (568257 -143743 -9.29177e+06) (568257 -143743 -9.29177e+06) (568257 -143743 -9.29177e+06)
450           (1.30601e+06 -268665 -9.30456e+06) (1.30601e+06 -268665 -9.30456e+06) (1.30601e+06 -268665 -9.30456e+06) (1.30601e+06 -268665 -9.30456e+06) (1.30601e+06 -268665 -9.30456e+06) (1.30601e+06 -268665 -9.30456e+06) (574165 -145261 -9.34035e+06) (574165 -145261 -9.34035e+06) (574165 -145261 -9.34035e+06) (574165 -145261 -9.34035e+06) (574165 -145261 -9.34035e+06)
500           (1.3076e+06 -268963 -9.28024e+06) (1.3076e+06 -268963 -9.28024e+06) (1.3076e+06 -268963 -9.28024e+06) (1.3076e+06 -268963 -9.28024e+06) (1.3076e+06 -268963 -9.28024e+06) (1.3076e+06 -268963 -9.28024e+06) (576762 -145894 -9.36192e+06) (576762 -145894 -9.36192e+06) (576762 -145894 -9.36192e+06) (576762 -145894 -9.36192e+06) (576762 -145894 -9.36192e+06)
550           (1.3083e+06 -269095 -9.26958e+06) (1.3083e+06 -269095 -9.26958e+06) (1.3083e+06 -269095 -9.26958e+06) (1.3083e+06 -269095 -9.26958e+06) (1.3083e+06 -269095 -9.26958e+06) (1.3083e+06 -269095 -9.26958e+06) (577906 -146159 -9.3714e+06) (577906 -146159 -9.3714e+06) (577906 -146159 -9.3714e+06) (577906 -146159 -9.3714e+06) (577906 -146159 -9.3714e+06)
600           (1.3086e+06 -269150 -9.26498e+06) (1.3086e+06 -269150 -9.26498e+06) (1.3086e+06 -269150 -9.26498e+06) (1.3086e+06 -269150 -9.26498e+06) (1.3086e+06 -269150 -9.26498e+06) (1.3086e+06 -269150 -9.26498e+06) (578384 -146267 -9.37549e+06) (578384 -146267 -9.37549e+06) (578384 -146267 -9.37549e+06) (578384 -146267 -9.37549e+06) (578384 -146267 -9.37549e+06)
650           (1.30873e+06 -269176 -9.26304e+06) (1.30873e+06 -269176 -9.26304e+06) (1.30873e+06 -269176 -9.26304e+06) (1.30873e+06 -269176 -9.26304e+06) (1.30873e+06 -269176 -9.26304e+06) (1.30873e+06 -269176 -9.26304e+06) (578593 -146317 -9.37722e+06) (578593 -146317 -9.37722e+06) (578593 -146317 -9.37722e+06) (578593 -146317 -9.37722e+06) (578593 -146317 -9.37722e+06)
700           (1.30878e+06 -269185 -9.26215e+06) (1.30878e+06 -269185 -9.26215e+06) (1.30878e+06 -269185 -9.26215e+06) (1.30878e+06 -269185 -9.26215e+06) (1.30878e+06 -269185 -9.26215e+06) (1.30878e+06 -269185 -9.26215e+06) (578683 -146336 -9.37801e+06) (578683 -146336 -9.37801e+06) (578683 -146336 -9.37801e+06) (578683 -146336 -9.37801e+06) (578683 -146336 -9.37801e+06)
750           (1.3088e+06 -269189 -9.26184e+06) (1.3088e+06 -269189 -9.26184e+06) (1.3088e+06 -269189 -9.26184e+06) (1.3088e+06 -269189 -9.26184e+06) (1.3088e+06 -269189 -9.26184e+06) (1.3088e+06 -269189 -9.26184e+06) (578716 -146343 -9.37828e+06) (578716 -146343 -9.37828e+06) (578716 -146343 -9.37828e+06) (578716 -146343 -9.37828e+06) (578716 -146343 -9.37828e+06)
800           (1.30881e+06 -269191 -9.26169e+06) (1.30881e+06 -269191 -9.26169e+06) (1.30881e+06 -269191 -9.26169e+06) (1.30881e+06 -269191 -9.26169e+06) (1.30881e+06 -269191 -9.26169e+06) (1.30881e+06 -269191 -9.26169e+06) (578732 -146346 -9.37841e+06) (578732 -146346 -9.37841e+06) (578732 -146346 -9.37841e+06) (578732 -146346 -9.37841e+06) (578732 -146346 -9.37841e+06)
850           (1.30882e+06 -269194 -9.26161e+06) (1.30882e+06 -269194 -9.26161e+06) (1.30882e+06 -269194 -9.26161e+06) (1.30882e+06 -269194 -9.26161e+06) (1.30882e+06 -269194 -9.26161e+06) (1.30882e+06 -269194 -9.26161e+06) (578744 -146351 -9.37848e+06) (578744 -146351 -9.37848e+06) (578744 -146351 -9.37848e+06) (578744 -146351 -9.37848e+06) (578744 -146351 -9.37848e+06)
900           (1.30882e+06 -269194 -9.26161e+06) (1.30882e+06 -269194 -9.26161e+06) (1.30882e+06 -269194 -9.26161e+06) (1.30882e+06 -269194 -9.26161e+06) (1.30882e+06 -269194 -9.26161e+06) (1.30882e+06 -269194 -9.26161e+06) (578744 -146351 -9.37848e+06) (578744 -146351 -9.37848e+06) (578744 -146351 -9.37848e+06) (578744 -146351 -9.37848e+06) (578744 -146351 -9.37848e+06)
950           (1.30882e+06 -269194 -9.26161e+06) (1.30882e+06 -269194 -9.26161e+06) (1.30882e+06 -269194 -9.26161e+06) (1.30882e+06 -269194 -9.26161e+06) (1.30882e+06 -269194 -9.26161e+06) (1.30882e+06 -269194 -9.26161e+06) (578744 -146351 -9.37848e+06) (578744 -146351 -9.37848e+06) (578744 -146351 -9.37848e+06) (578744 -146351 -9.37848e+06) (578744 -146351 -9.37848e+06)
1000          (1.30882e+06 -269194 -9.26161e+06) (1.30882e+06 -269194 -9.26161e+06) (1.30882e+06 -269194 -9.26161e+06) (1.30882e+06 -269194 -9.26161e+06) (1.30882e+06 -269194 -9.26161e+06) (1.30882e+06 -269194 -9.26161e+06) (578744 -146351 -9.37848e+06) (578744 -146351 -9.37848e+06) (578744 -146351 -9.37848e+06) (578744 -146351 -9.37848e+06) (578744 -146351 -9.37848e+06)
1050          (1.30882e+06 -269194 -9.26161e+06) (1.30882e+06 -269194 -9.26161e+06) (1.30882e+06 -269194 -9.26161e+06) (1.30882e+06 -269194 -9.26161e+06) (1.30882e+06 -269194 -9.26161e+06) (1.30882e+06 -269194 -9.26161e+06) (578744 -146351 -9.37848e+06) (578744 -146351 -9.37848e+06) (578744 -146351 -9.37848e+06) (578744 -146351 -9.37848e+06) (578744 -146351 -9.37848e+06)
1100          (1.30882e+06 -269194 -9.26161e+06) (1.30882e+06 -269194 -9.26161e+06) (1.30882e+06 -269194 -9.26161e+06) (1.30882e+06 -269194 -9.26161e+06) (1.30882e+06 -269194 -9.26161e+06) (1.30882e+06 -269194 -9.26161e+06) (578744 -146351 -9.37848e+06) (578744 -146351 -9.37848e+06) (578744 -146351 -9.37848e+06) (578744 -146351 -9.37848e+06) (578744 -146351 -9.37848e+06)
1150          (1.30882e+06 -269194 -9.26161e+06) (1.30882e+06 -269194 -9.26161e+06) (1.30882e+06 -269194 -9.26161e+06) (1.30882e+06 -269194 -9.26161e+06) (1.30882e+06 -269194 -9.26161e+06) (1.30882e+06 -269194 -9.26161e+06) (578744 -146351 -9.37848e+06) (578744 -146351 -9.37848e+06) (578744 -146351 -9.37848e+06) (578744 -146351 -9.37848e+06) (578744 -146351 -9.37848e+06)
1200          (1.30882e+06 -269194 -9.26161e+06) (1.30882e+06 -269194 -9.26161e+06) (1.30882e+06 -269194 -9.26161e+06) (1.30882e+06 -269194 -9.26161e+06) (1.30882e+06 -269194 -9.26161e+06) (1.30882e+06 -269194 -9.26161e+06) (578744 -146351 -9.37848e+06) (578744 -146351 -9.37848e+06) (578744 -146351 -9.37848e+06) (578744 -146351 -9.37848e+06) (578744 -146351 -9.37848e+06)
1250          (1.30882e+06 -269194 -9.26161e+06) (1.30882e+06 -269194 -9.26161e+06) (1.30882e+06 -269194 -9.26161e+06) (1.30882e+06 -269194 -9.26161e+06) (1.30882e+06 -269194 -9.26161e+06) (1.30882e+06 -269194 -9.26161e+06) (578744 -146351 -9.37848e+06) (578744 -146351 -9.37848e+06) (578744 -146351 -9.37848e+06) (578744 -146351 -9.37848e+06) (578744 -146351 -9.37848e+06)
1300          (1.30882e+06 -269194 -9.26161e+06) (1.30882e+06 -269194 -9.26161e+06) (1.30882e+06 -269194 -9.26161e+06) (1.30882e+06 -269194 -9.26161e+06) (1.30882e+06 -269194 -9.26161e+06) (1.30882e+06 -269194 -9.26161e+06) (578744 -146351 -9.37848e+06) (578744 -146351 -9.37848e+06) (578744 -146351 -9.37848e+06) (578744 -146351 -9.37848e+06) (578744 -146351 -9.37848e+06)
1350          (1.30882e+06 -269194 -9.26161e+06) (1.30882e+06 -269194 -9.26161e+06) (1.30882e+06 -269194 -9.26161e+06) (1.30882e+06 -269194 -9.26161e+06) (1.30882e+06 -269194 -9.26161e+06) (1.30882e+06 -269194 -9.26161e+06) (578744 -146351 -9.37848e+06) (578744 -146351 -9.37848e+06) (578744 -146351 -9.37848e+06) (578744 -146351 -9.37848e+06) (578744 -146351 -9.37848e+06)
1400          (1.30882e+06 -269194 -9.26161e+06) (1.30882e+06 -269194 -9.26161e+06) (1.30882e+06 -269194 -9.26161e+06) (1.30882e+06 -269194 -9.26161e+06) (1.30882e+06 -269194 -9.26161e+06) (1.30882e+06 -269194 -9.26161e+06) (578744 -146351 -9.37848e+06) (578744 -146351 -9.37848e+06) (578744 -146351 -9.37848e+06) (578744 -146351 -9.37848e+06) (578744 -146351 -9.37848e+06)
1450          (1.30882e+06 -269194 -9.26161e+06) (1.30882e+06 -269194 -9.26161e+06) (1.30882e+06 -269194 -9.26161e+06) (1.30882e+06 -269194 -9.26161e+06) (1.30882e+06 -269194 -9.26161e+06) (1.30882e+06 -269194 -9.26161e+06) (578744 -146351 -9.37848e+06) (578744 -146351 -9.37848e+06) (578744 -146351 -9.37848e+06) (578744 -146351 -9.37848e+06) (578744 -146351 -9.37848e+06)
1500          (1.30882e+06 -269194 -9.26161e+06) (1.30882e+06 -269194 -9.26161e+06) (1.30882e+06 -269194 -9.26161e+06) (1.30882e+06 -269194 -9.26161e+06) (1.30882e+06 -269194 -9.26161e+06) (1.30882e+06 -269194 -9.26161e+06) (578744 -146351 -9.37848e+06) (578744 -146351 -9.37848e+06) (578744 -146351 -9.37848e+06) (578744 -146351 -9.37848e+06) (578744 -146351 -9.37848e+06)
1550          (1.30882e+06 -269194 -9.26161e+06) (1.30882e+06 -269194 -9.26161e+06) (1.30882e+06 -269194 -9.26161e+06) (1.30882e+06 -269194 -9.26161e+06) (1.30882e+06 -269194 -9.26161e+06) (1.30882e+06 -269194 -9.26161e+06) (578744 -146351 -9.37848e+06) (578744 -146351 -9.37848e+06) (578744 -146351 -9.37848e+06) (578744 -146351 -9.37848e+06) (578744 -146351 -9.37848e+06)
1600          (1.30882e+06 -269194 -9.26161e+06) (1.30882e+06 -269194 -9.26161e+06) (1.30882e+06 -269194 -9.26161e+06) (1.30882e+06 -269194 -9.26161e+06) (1.30882e+06 -269194 -9.26161e+06) (1.30882e+06 -269194 -9.26161e+06) (578744 -146351 -9.37848e+06) (578744 -146351 -9.37848e+06) (578744 -146351 -9.37848e+06) (578744 -146351 -9.37848e+06) (578744 -146351 -9.37848e+06)
1650          (1.30882e+06 -269194 -9.26161e+06) (1.30882e+06 -269194 -9.26161e+06) (1.30882e+06 -269194 -9.26161e+06) (1.30882e+06 -269194 -9.26161e+06) (1.30882e+06 -269194 -9.26161e+06) (1.30882e+06 -269194 -9.26161e+06) (578744 -146351 -9.37848e+06) (578744 -146351 -9.37848e+06) (578744 -146351 -9.37848e+06) (578744 -146351 -9.37848e+06) (578744 -146351 -9.37848e+06)
1700          (1.30882e+06 -269194 -9.26161e+06) (1.30882e+06 -269194 -9.26161e+06) (1.30882e+06 -269194 -9.26161e+06) (1.30882e+06 -269194 -9.26161e+06) (1.30882e+06 -269194 -9.26161e+06) (1.30882e+06 -269194 -9.26161e+06) (578744 -146351 -9.37848e+06) (578744 -146351 -9.37848e+06) (578744 -146351 -9.37848e+06) (578744 -146351 -9.37848e+06) (578744 -146351 -9.37848e+06)
1750          (1.30882e+06 -269194 -9.26161e+06) (1.30882e+06 -269194 -9.26161e+06) (1.30882e+06 -269194 -9.26161e+06) (1.30882e+06 -269194 -9.26161e+06) (1.30882e+06 -269194 -9.26161e+06) (1.30882e+06 -269194 -9.26161e+06) (578744 -146351 -9.37848e+06) (578744 -146351 -9.37848e+06) (578744 -146351 -9.37848e+06) (578744 -146351 -9.37848e+06) (578744 -146351 -9.37848e+06)
1800          (1.30882e+06 -269194 -9.26161e+06) (1.30882e+06 -269194 -9.26161e+06) (1.30882e+06 -269194 -9.26161e+06) (1.30882e+06 -269194 -9.26161e+06) (1.30882e+06 -269194 -9.26161e+06) (1.30882e+06 -269194 -9.26161e+06) (578744 -146351 -9.37848e+06) (578744 -146351 -9.37848e+06) (578744 -146351 -9.37848e+06) (578744 -146351 -9.37848e+06) (578744 -146351 -9.37848e+06)
1850          (1.30882e+06 -269194 -9.26161e+06) (1.30882e+06 -269194 -9.26161e+06) (1.30882e+06 -269194 -9.26161e+06) (1.30882e+06 -269194 -9.26161e+06) (1.30882e+06 -269194 -9.26161e+06) (1.30882e+06 -269194 -9.26161e+06) (578744 -146351 -9.37848e+06) (578744 -146351 -9.37848e+06) (578744 -146351 -9.37848e+06) (578744 -146351 -9.37848e+06) (578744 -146351 -9.37848e+06)
1900          (1.30882e+06 -269194 -9.26161e+06) (1.30882e+06 -269194 -9.26161e+06) (1.30882e+06 -269194 -9.26161e+06) (1.30882e+06 -269194 -9.26161e+06) (1.30882e+06 -269194 -9.26161e+06) (1.30882e+06 -269194 -9.26161e+06) (578744 -146351 -9.37848e+06) (578744 -146351 -9.37848e+06) (578744 -146351 -9.37848e+06) (578744 -146351 -9.37848e+06) (578744 -146351 -9.37848e+06)
1950          (1.30882e+06 -269194 -9.26161e+06) (1.30882e+06 -269194 -9.26161e+06) (1.30882e+06 -269194 -9.26161e+06) (1.30882e+06 -269194 -9.26161e+06) (1.30882e+06 -269194 -9.26161e+06) (1.30882e+06 -269194 -9.26161e+06) (578744 -146351 -9.37848e+06) (578744 -146351 -9.37848e+06) (578744 -146351 -9.37848e+06) (578744 -146351 -9.37848e+06) (578744 -146351 -9.37848e+06)
2000          (1.30882e+06 -269194 -9.26161e+06) (1.30882e+06 -269194 -9.26161e+06) (1.30882e+06 -269194 -9.26161e+06) (1.30882e+06 -269194 -9.26161e+06) (1.30882e+06 -269194 -9.26161e+06) (1.30882e+06 -269194 -9.26161e+06) (578744 -146351 -9.37848e+06) (578744 -146351 -9.37848e+06) (578744 -146351 -9.37848e+06) (578744 -146351 -9.37848e+06) (578744 -146351 -9.37848e+06)
2050          (1.30882e+06 -269194 -9.26161e+06) (1.30882e+06 -269194 -9.26161e+06) (1.30882e+06 -269194 -9.26161e+06) (1.30882e+06 -269194 -9.26161e+06) (1.30882e+06 -269194 -9.26161e+06) (1.30882e+06 -269194 -9.26161e+06) (578744 -146351 -9.37848e+06) (578744 -146351 -9.37848e+06) (578744 -146351 -9.37848e+06) (578744 -146351 -9.37848e+06) (578744 -146351 -9.37848e+06)
2100          (1.30882e+06 -269194 -9.26161e+06) (1.30882e+06 -269194 -9.26161e+06) (1.30882e+06 -269194 -9.26161e+06) (1.30882e+06 -269194 -9.26161e+06) (1.30882e+06 -269194 -9.26161e+06) (1.30882e+06 -269194 -9.26161e+06) (578744 -146351 -9.37848e+06) (578744 -146351 -9.37848e+06) (578744 -146351 -9.37848e+06) (578744 -146351 -9.37848e+06) (578744 -146351 -9.37848e+06)
2150          (1.30882e+06 -269194 -9.26161e+06) (1.30882e+06 -269194 -9.26161e+06) (1.30882e+06 -269194 -9.26161e+06) (1.30882e+06 -269194 -9.26161e+06) (1.30882e+06 -269194 -9.26161e+06) (1.30882e+06 -269194 -9.26161e+06) (578744 -146351 -9.37848e+06) (578744 -146351 -9.37848e+06) (578744 -146351 -9.37848e+06) (578744 -146351 -9.37848e+06) (578744 -146351 -9.37848e+06)
2200          (1.30882e+06 -269194 -9.26161e+06) (1.30882e+06 -269194 -9.26161e+06) (1.30882e+06 -269194 -9.26161e+06) (1.30882e+06 -269194 -9.26161e+06) (1.30882e+06 -269194 -9.26161e+06) (1.30882e+06 -269194 -9.26161e+06) (578744 -146351 -9.37848e+06) (578744 -146351 -9.37848e+06) (578744 -146351 -9.37848e+06) (578744 -146351 -9.37848e+06) (578744 -146351 -9.37848e+06)
2250          (1.30882e+06 -269194 -9.26161e+06) (1.30882e+06 -269194 -9.26161e+06) (1.30882e+06 -269194 -9.26161e+06) (1.30882e+06 -269194 -9.26161e+06) (1.30882e+06 -269194 -9.26161e+06) (1.30882e+06 -269194 -9.26161e+06) (578744 -146351 -9.37848e+06) (578744 -146351 -9.37848e+06) (578744 -146351 -9.37848e+06) (578744 -146351 -9.37848e+06) (578744 -146351 -9.37848e+06)
2300          (1.30882e+06 -269194 -9.26161e+06) (1.30882e+06 -269194 -9.26161e+06) (1.30882e+06 -269194 -9.26161e+06) (1.30882e+06 -269194 -9.26161e+06) (1.30882e+06 -269194 -9.26161e+06) (1.30882e+06 -269194 -9.26161e+06) (578744 -146351 -9.37848e+06) (578744 -146351 -9.37848e+06) (578744 -146351 -9.37848e+06) (578744 -146351 -9.37848e+06) (578744 -146351 -9.37848e+06)
2350          (1.30882e+06 -269194 -9.26161e+06) (1.30882e+06 -269194 -9.26161e+06) (1.30882e+06 -269194 -9.26161e+06) (1.30882e+06 -269194 -9.26161e+06) (1.30882e+06 -269194 -9.26161e+06) (1.30882e+06 -269194 -9.26161e+06) (578744 -146351 -9.37848e+06) (578744 -146351 -9.37848e+06) (578744 -146351 -9.37848e+06) (578744 -146351 -9.37848e+06) (578744 -146351 -9.37848e+06)
2400          (1.30882e+06 -269194 -9.26161e+06) (1.30882e+06 -269194 -9.26161e+06) (1.30882e+06 -269194 -9.26161e+06) (1.30882e+06 -269194 -9.26161e+06) (1.30882e+06 -269194 -9.26161e+06) (1.30882e+06 -269194 -9.26161e+06) (578744 -146351 -9.37848e+06) (578744 -146351 -9.37848e+06) (578744 -146351 -9.37848e+06) (578744 -146351 -9.37848e+06) (578744 -146351 -9.37848e+06)
2450          (1.30882e+06 -269194 -9.26161e+06) (1.30882e+06 -269194 -9.26161e+06) (1.30882e+06 -269194 -9.26161e+06) (1.30882e+06 -269194 -9.26161e+06) (1.30882e+06 -269194 -9.26161e+06) (1.30882e+06 -269194 -9.26161e+06) (578744 -146351 -9.37848e+06) (578744 -146351 -9.37848e+06) (578744 -146351 -9.37848e+06) (578744 -146351 -9.37848e+06) (578744 -146351 -9.37848e+06)
2500          (1.30882e+06 -269194 -9.26161e+06) (1.30882e+06 -269194 -9.26161e+06) (1.30882e+06 -269194 -9.26161e+06) (1.30882e+06 -269194 -9.26161e+06) (1.30882e+06 -269194 -9.26161e+06) (1.30882e+06 -269194 -9.26161e+06) (578744 -146351 -9.37848e+06) (578744 -146351 -9.37848e+06) (578744 -146351 -9.37848e+06) (578744 -146351 -9.37848e+06) (578744 -146351 -9.37848e+06)
2550          (1.30882e+06 -269194 -9.26161e+06) (1.30882e+06 -269194 -9.26161e+06) (1.30882e+06 -269194 -9.26161e+06) (1.30882e+06 -269194 -9.26161e+06) (1.30882e+06 -269194 -9.26161e+06) (1.30882e+06 -269194 -9.26161e+06) (578744 -146351 -9.37848e+06) (578744 -146351 -9.37848e+06) (578744 -146351 -9.37848e+06) (578744 -146351 -9.37848e+06) (578744 -146351 -9.37848e+06)
2600          (1.30882e+06 -269194 -9.26161e+06) (1.30882e+06 -269194 -9.26161e+06) (1.30882e+06 -269194 -9.26161e+06) (1.30882e+06 -269194 -9.26161e+06) (1.30882e+06 -269194 -9.26161e+06) (1.30882e+06 -269194 -9.26161e+06) (578744 -146351 -9.37848e+06) (578744 -146351 -9.37848e+06) (578744 -146351 -9.37848e+06) (578744 -146351 -9.37848e+06) (578744 -146351 -9.37848e+06)
2650          (1.30882e+06 -269194 -9.26161e+06) (1.30882e+06 -269194 -9.26161e+06) (1.30882e+06 -269194 -9.26161e+06) (1.30882e+06 -269194 -9.26161e+06) (1.30882e+06 -269194 -9.26161e+06) (1.30882e+06 -269194 -9.26161e+06) (578744 -146351 -9.37848e+06) (578744 -146351 -9.37848e+06) (578744 -146351 -9.37848e+06) (578744 -146351 -9.37848e+06) (578744 -146351 -9.37848e+06)
2700          (1.30882e+06 -269194 -9.26161e+06) (1.30882e+06 -269194 -9.26161e+06) (1.30882e+06 -269194 -9.26161e+06) (1.30882e+06 -269194 -9.26161e+06) (1.30882e+06 -269194 -9.26161e+06) (1.30882e+06 -269194 -9.26161e+06) (578744 -146351 -9.37848e+06) (578744 -146351 -9.37848e+06) (578744 -146351 -9.37848e+06) (578744 -146351 -9.37848e+06) (578744 -146351 -9.37848e+06)
2750          (1.30882e+06 -269194 -9.26161e+06) (1.30882e+06 -269194 -9.26161e+06) (1.30882e+06 -269194 -9.26161e+06) (1.30882e+06 -269194 -9.26161e+06) (1.30882e+06 -269194 -9.26161e+06) (1.30882e+06 -269194 -9.26161e+06) (578744 -146351 -9.37848e+06) (578744 -146351 -9.37848e+06) (578744 -146351 -9.37848e+06) (578744 -146351 -9.37848e+06) (578744 -146351 -9.37848e+06)
2800          (1.30882e+06 -269194 -9.26161e+06) (1.30882e+06 -269194 -9.26161e+06) (1.30882e+06 -269194 -9.26161e+06) (1.30882e+06 -269194 -9.26161e+06) (1.30882e+06 -269194 -9.26161e+06) (1.30882e+06 -269194 -9.26161e+06) (578744 -146351 -9.37848e+06) (578744 -146351 -9.37848e+06) (578744 -146351 -9.37848e+06) (578744 -146351 -9.37848e+06) (578744 -146351 -9.37848e+06)
2850          (1.30882e+06 -269194 -9.26161e+06) (1.30882e+06 -269194 -9.26161e+06) (1.30882e+06 -269194 -9.26161e+06) (1.30882e+06 -269194 -9.26161e+06) (1.30882e+06 -269194 -9.26161e+06) (1.30882e+06 -269194 -9.26161e+06) (578744 -146351 -9.37848e+06) (578744 -146351 -9.37848e+06) (578744 -146351 -9.37848e+06) (578744 -146351 -9.37848e+06) (578744 -146351 -9.37848e+06)
2900          (1.30882e+06 -269194 -9.26161e+06) (1.30882e+06 -269194 -9.26161e+06) (1.30882e+06 -269194 -9.26161e+06) (1.30882e+06 -269194 -9.26161e+06) (1.30882e+06 -269194 -9.26161e+06) (1.30882e+06 -269194 -9.26161e+06) (578744 -146351 -9.37848e+06) (578744 -146351 -9.37848e+06) (578744 -146351 -9.37848e+06) (578744 -146351 -9.37848e+06) (578744 -146351 -9.37848e+06)
2950          (1.30882e+06 -269194 -9.26161e+06) (1.30882e+06 -269194 -9.26161e+06) (1.30882e+06 -269194 -9.26161e+06) (1.30882e+06 -269194 -9.26161e+06) (1.30882e+06 -269194 -9.26161e+06) (1.30882e+06 -269194 -9.26161e+06) (578744 -146351 -9.37848e+06) (578744 -146351 -9.37848e+06) (578744 -146351 -9.37848e+06) (578744 -146351 -9.37848e+06) (578744 -146351 -9.37848e+06)
3000          (1.30882e+06 -269194 -9.26161e+06) (1.30882e+06 -269194 -9.26161e+06) (1.30882e+06 -269194 -9.26161e+06) (1.30882e+06 -269194 -9.26161e+06) (1.30882e+06 -269194 -9.26161e+06) (1.30882e+06 -269194 -9.26161e+06) (578744 -146351 -9.37848e+06) (578744 -146351 -9.37848e+06) (578744 -146351 -9.37848e+06) (578744 -146351 -9.37848e+06) (578744 -146351 -9.37848e+06)
3050          (1.30882e+06 -269194 -9.26161e+06) (1.30882e+06 -269194 -9.26161e+06) (1.30882e+06 -269194 -9.26161e+06) (1.30882e+06 -269194 -9.26161e+06) (1.30882e+06 -269194 -9.26161e+06) (1.30882e+06 -269194 -9.26161e+06) (578744 -146351 -9.37848e+06) (578744 -146351 -9.37848e+06) (578744 -146351 -9.37848e+06) (578744 -146351 -9.37848e+06) (578744 -146351 -9.37848e+06)
3100          (1.30882e+06 -269194 -9.26161e+06) (1.30882e+06 -269194 -9.26161e+06) (1.30882e+06 -269194 -9.26161e+06) (1.30882e+06 -269194 -9.26161e+06) (1.30882e+06 -269194 -9.26161e+06) (1.30882e+06 -269194 -9.26161e+06) (578744 -146351 -9.37848e+06) (578744 -146351 -9.37848e+06) (578744 -146351 -9.37848e+06) (578744 -146351 -9.37848e+06) (578744 -146351 -9.37848e+06)
3150          (1.30882e+06 -269194 -9.26161e+06) (1.30882e+06 -269194 -9.26161e+06) (1.30882e+06 -269194 -9.26161e+06) (1.30882e+06 -269194 -9.26161e+06) (1.30882e+06 -269194 -9.26161e+06) (1.30882e+06 -269194 -9.26161e+06) (578744 -146351 -9.37848e+06) (578744 -146351 -9.37848e+06) (578744 -146351 -9.37848e+06) (578744 -146351 -9.37848e+06) (578744 -146351 -9.37848e+06)
3200          (1.30882e+06 -269194 -9.26161e+06) (1.30882e+06 -269194 -9.26161e+06) (1.30882e+06 -269194 -9.26161e+06) (1.30882e+06 -269194 -9.26161e+06) (1.30882e+06 -269194 -9.26161e+06) (1.30882e+06 -269194 -9.26161e+06) (578744 -146351 -9.37848e+06) (578744 -146351 -9.37848e+06) (578744 -146351 -9.37848e+06) (578744 -146351 -9.37848e+06) (578744 -146351 -9.37848e+06)
3250          (1.30882e+06 -269194 -9.26161e+06) (1.30882e+06 -269194 -9.26161e+06) (1.30882e+06 -269194 -9.26161e+06) (1.30882e+06 -269194 -9.26161e+06) (1.30882e+06 -269194 -9.26161e+06) (1.30882e+06 -269194 -9.26161e+06) (578744 -146351 -9.37848e+06) (578744 -146351 -9.37848e+06) (578744 -146351 -9.37848e+06) (578744 -146351 -9.37848e+06) (578744 -146351 -9.37848e+06)
3300          (1.30882e+06 -269194 -9.26161e+06) (1.30882e+06 -269194 -9.26161e+06) (1.30882e+06 -269194 -9.26161e+06) (1.30882e+06 -269194 -9.26161e+06) (1.30882e+06 -269194 -9.26161e+06) (1.30882e+06 -269194 -9.26161e+06) (578744 -146351 -9.37848e+06) (578744 -146351 -9.37848e+06) (578744 -146351 -9.37848e+06) (578744 -146351 -9.37848e+06) (578744 -146351 -9.37848e+06)
3350          (1.30882e+06 -269194 -9.26161e+06) (1.30882e+06 -269194 -9.26161e+06) (1.30882e+06 -269194 -9.26161e+06) (1.30882e+06 -269194 -9.26161e+06) (1.30882e+06 -269194 -9.26161e+06) (1.30882e+06 -269194 -9.26161e+06) (578744 -146351 -9.37848e+06) (578744 -146351 -9.37848e+06) (578744 -146351 -9.37848e+06) (578744 -146351 -9.37848e+06) (578744 -146351 -9.37848e+06)
3400          (1.30882e+06 -269194 -9.26161e+06) (1.30882e+06 -269194 -9.26161e+06) (1.30882e+06 -269194 -9.26161e+06) (1.30882e+06 -269194 -9.26161e+06) (1.30882e+06 -269194 -9.26161e+06) (1.30882e+06 -269194 -9.26161e+06) (578744 -146351 -9.37848e+06) (578744 -146351 -9.37848e+06) (578744 -146351 -9.37848e+06) (578744 -146351 -9.37848e+06) (578744 -146351 -9.37848e+06)
3450          (1.30882e+06 -269194 -9.26161e+06) (1.30882e+06 -269194 -9.26161e+06) (1.30882e+06 -269194 -9.26161e+06) (1.30882e+06 -269194 -9.26161e+06) (1.30882e+06 -269194 -9.26161e+06) (1.30882e+06 -269194 -9.26161e+06) (578744 -146351 -9.37848e+06) (578744 -146351 -9.37848e+06) (578744 -146351 -9.37848e+06) (578744 -146351 -9.37848e+06) (578744 -146351 -9.37848e+06)
3500          (1.30882e+06 -269194 -9.26161e+06) (1.30882e+06 -269194 -9.26161e+06) (1.30882e+06 -269194 -9.26161e+06) (1.30882e+06 -269194 -9.26161e+06) (1.30882e+06 -269194 -9.26161e+06) (1.30882e+06 -269194 -9.26161e+06) (578744 -146351 -9.37848e+06) (578744 -146351 -9.37848e+06) (578744 -146351 -9.37848e+06) (578744 -146351 -9.37848e+06) (578744 -146351 -9.37848e+06)
3550          (1.30882e+06 -269194 -9.26161e+06) (1.30882e+06 -269194 -9.26161e+06) (1.30882e+06 -269194 -9.26161e+06) (1.30882e+06 -269194 -9.26161e+06) (1.30882e+06 -269194 -9.26161e+06) (1.30882e+06 -269194 -9.26161e+06) (578744 -146351 -9.37848e+06) (578744 -146351 -9.37848e+06) (578744 -146351 -9.37848e+06) (578744 -146351 -9.37848e+06) (578744 -146351 -9.37848e+06)
3600          (1.30882e+06 -269194 -9.26161e+06) (1.30882e+06 -269194 -9.26161e+06) (1.30882e+06 -269194 -9.26161e+06) (1.30882e+06 -269194 -9.26161e+06) (1.30882e+06 -269194 -9.26161e+06) (1.30882e+06 -269194 -9.26161e+06) (578744 -146351 -9.37848e+06) (578744 -146351 -9.37848e+06) (578744 -146351 -9.37848e+06) (578744 -146351 -9.37848e+06) (578744 -146351 -9.37848e+06)
3650          (1.30882e+06 -269194 -9.26161e+06) (1.30882e+06 -269194 -9.26161e+06) (1.30882e+06 -269194 -9.26161e+06) (1.30882e+06 -269194 -9.26161e+06) (1.30882e+06 -269194 -9.26161e+06) (1.30882e+06 -269194 -9.26161e+06) (578744 -146351 -9.37848e+06) (578744 -146351 -9.37848e+06) (578744 -146351 -9.37848e+06) (578744 -146351 -9.37848e+06) (578744 -146351 -9.37848e+06)
3700          (1.30882e+06 -269194 -9.26161e+06) (1.30882e+06 -269194 -9.26161e+06) (1.30882e+06 -269194 -9.26161e+06) (1.30882e+06 -269194 -9.26161e+06) (1.30882e+06 -269194 -9.26161e+06) (1.30882e+06 -269194 -9.26161e+06) (578744 -146351 -9.37848e+06) (578744 -146351 -9.37848e+06) (578744 -146351 -9.37848e+06) (578744 -146351 -9.37848e+06) (578744 -146351 -9.37848e+06)
3750          (1.30882e+06 -269194 -9.26161e+06) (1.30882e+06 -269194 -9.26161e+06) (1.30882e+06 -269194 -9.26161e+06) (1.30882e+06 -269194 -9.26161e+06) (1.30882e+06 -269194 -9.26161e+06) (1.30882e+06 -269194 -9.26161e+06) (578744 -146351 -9.37848e+06) (578744 -146351 -9.37848e+06) (578744 -146351 -9.37848e+06) (578744 -146351 -9.37848e+06) (578744 -146351 -9.37848e+06)
3800          (1.30882e+06 -269194 -9.26161e+06) (1.30882e+06 -269194 -9.26161e+06) (1.30882e+06 -269194 -9.26161e+06) (1.30882e+06 -269194 -9.26161e+06) (1.30882e+06 -269194 -9.26161e+06) (1.30882e+06 -269194 -9.26161e+06) (578744 -146351 -9.37848e+06) (578744 -146351 -9.37848e+06) (578744 -146351 -9.37848e+06) (578744 -146351 -9.37848e+06) (578744 -146351 -9.37848e+06)
3850          (1.30882e+06 -269194 -9.26161e+06) (1.30882e+06 -269194 -9.26161e+06) (1.30882e+06 -269194 -9.26161e+06) (1.30882e+06 -269194 -9.26161e+06) (1.30882e+06 -269194 -9.26161e+06) (1.30882e+06 -269194 -9.26161e+06) (578744 -146351 -9.37848e+06) (578744 -146351 -9.37848e+06) (578744 -146351 -9.37848e+06) (578744 -146351 -9.37848e+06) (578744 -146351 -9.37848e+06)
3900          (1.30882e+06 -269194 -9.26161e+06) (1.30882e+06 -269194 -9.26161e+06) (1.30882e+06 -269194 -9.26161e+06) (1.30882e+06 -269194 -9.26161e+06) (1.30882e+06 -269194 -9.26161e+06) (1.30882e+06 -269194 -9.26161e+06) (578744 -146351 -9.37848e+06) (578744 -146351 -9.37848e+06) (578744 -146351 -9.37848e+06) (578744 -146351 -9.37848e+06) (578744 -146351 -9.37848e+06)
3950          (1.30882e+06 -269194 -9.26161e+06) (1.30882e+06 -269194 -9.26161e+06) (1.30882e+06 -269194 -9.26161e+06) (1.30882e+06 -269194 -9.26161e+06) (1.30882e+06 -269194 -9.26161e+06) (1.30882e+06 -269194 -9.26161e+06) (578744 -146351 -9.37848e+06) (578744 -146351 -9.37848e+06) (578744 -146351 -9.37848e+06) (578744 -146351 -9.37848e+06) (578744 -146351 -9.37848e+06)