# Probe 0 (0.0015 0.0015 0)
# Probe 1 (0.0015 0.0015 0.002)
# Probe 2 (0.0015 0.0015 0.004)
# Probe 3 (0.0015 0.0015 0.006)
# Probe 4 (0.0015 0.0015 0.008)
# Probe 5 (0.0015 0.0015 0.01)
# Probe 6 (0.0015 0.0015 0.012)
# Probe 7 (0.0015 0.0015 0.014)
# Probe 8 (0.0015 0.0015 0.016)
# Probe 9 (0.0015 0.0015 0.018)
# Probe 10 (0.0015 0.0015 0.02)
# Time        0             1             2             3             4             5             6             7             8             9             10           
50            100001        100001        100001        100001        100001        100001        100000        100000        100000        100000        100000       
100           100000        100000        100000        100000        100000        100000        100000        100000        100000        100000        100000       
150           100000        100000        100000        100000        100000        100000        100000        100000        100000        100000        100000       
200           100000        100000        100000        100000        100000        100000        100000        100000        100000        100000        100000       
250           100000        100000        100000        100000        100000        100000        100000        100000        100000        100000        100000       
300           100000        100000        100000        100000        100000        100000        100000        100000        100000        100000        100000       
350           100000        100000        100000        100000        100000        100000        100000        100000        100000        100000        100000       
400           100000        100000        100000        100000        100000        100000        100000        100000        100000        100000        100000       
450           100000        100000        100000        100000        100000        100000        100000        100000        100000        100000        100000       
500           100000        100000        100000        100000        100000        100000        100000        100000        100000        100000        100000       
550           100000        100000        100000        100000        100000        100000        100000        100000        100000        100000        100000       
600           100000        100000        100000        100000        100000        100000        100000        100000        100000        100000        100000       
650           100000        100000        100000        100000        100000        100000        100000        100000        100000        100000        100000       
700           100000        100000        100000        100000        100000        100000        100000        100000        100000        100000        100000       
750           100000        100000        100000        100000        100000        100000        100000        100000        100000        100000        100000       
800           100000        100000        100000        100000        100000        100000        100000        100000        100000        100000        100000       
850           100000        100000        100000        100000        100000        100000        100000        100000        100000        100000        100000       
900           100000        100000        100000        100000        100000        100000        100000        100000        100000        100000        100000       
950           100000        100000        100000        100000        100000        100000        100000        100000        100000        100000        100000       
1000          100000        100000        100000        100000        100000        100000        100000        100000        100000        100000        100000       
1050          100000        100000        100000        100000        100000        100000        100000        100000        100000        100000        100000       
1100          100000        100000        100000        100000        100000        100000        100000        100000        100000        100000        100000       
1150          100000        100000        100000        100000        100000        100000        100000        100000        100000        100000        100000       
1200          100000        100000        100000        100000        100000        100000        100000        100000        100000        100000        100000       
1250          100000        100000        100000        100000        100000        100000        100000        100000        100000        100000        100000       
1300          100000        100000        100000        100000        100000        100000        100000        100000        100000        100000        100000       
1350          100000        100000        100000        100000        100000        100000        100000        100000        100000        100000        100000       
1400          100000        100000        100000        100000        100000        100000        100000        100000        100000        100000        100000       
1450          100000        100000        100000        100000        100000        100000        100000        100000        100000        100000        100000       
1500          100000        100000        100000        100000        100000        100000        100000        100000        100000        100000        100000       
1550          100000        100000        100000        100000        100000        100000        100000        100000        100000        100000        100000       
1600          100000        100000        100000        100000        100000        100000        100000        100000        100000        100000        100000       
1650          100000        100000        100000        100000        100000        100000        100000        100000        100000        100000        100000       
1700          100000        100000        100000        100000        100000        100000        100000        100000        100000        100000        100000       
1750          100000        100000        100000        100000        100000        100000        100000        100000        100000        100000        100000       
1800          100000        100000        100000        100000        100000        100000        100000        100000        100000        100000        100000       
1850          100000        100000        100000        100000        100000        100000        100000        100000        100000        100000        100000       
1900          100000        100000        100000        100000        100000        100000        100000        100000        100000        100000        100000       
1950          100000        100000        100000        100000        100000        100000        100000        100000        100000        100000        100000       
2000          100000        100000        100000        100000        100000        100000        100000        100000        100000        100000        100000       
2050          100000        100000        100000        100000        100000        100000        100000        100000        100000        100000        100000       
2100          100000        100000        100000        100000        100000        100000        100000        100000        100000        100000        100000       
2150          100000        100000        100000        100000        100000        100000        100000        100000        100000        100000        100000       
2200          100000        100000        100000        100000        100000        100000        100000        100000        100000        100000        100000       
2250          100000        100000        100000        100000        100000        100000        100000        100000        100000        100000        100000       
2300          100000        100000        100000        100000        100000        100000        100000        100000        100000        100000        100000       
2350          100000        100000        100000        100000        100000        100000        100000        100000        100000        100000        100000       
2400          100000        100000        100000        100000        100000        100000        100000        100000        100000        100000        100000       
2450          100000        100000        100000        100000        100000        100000        100000        100000        100000        100000        100000       
2500          100000        100000        100000        100000        100000        100000        100000        100000        100000        100000        100000       
2550          100000        100000        100000        100000        100000        100000        100000        100000        100000        100000        100000       
2600          100000        100000        100000        100000        100000        100000        100000        100000        100000        100000        100000       
2650          100000        100000        100000        100000        100000        100000        100000        100000        100000        100000        100000       
2700          100000        100000        100000        100000        100000        100000        100000        100000        100000        100000        100000       
2750          100000        100000        100000        100000        100000        100000        100000        100000        100000        100000        100000       
2800          100000        100000        100000        100000        100000        100000        100000        100000        100000        100000        100000       
2850          100000        100000        100000        100000        100000        100000        100000        100000        100000        100000        100000       
2900          100000        100000        100000        100000        100000        100000        100000        100000        100000        100000        100000       
2950          100000        100000        100000        100000        100000        100000        100000        100000        100000        100000        100000       
3000          100000        100000        100000        100000        100000        100000        100000        100000        100000        100000        100000       
3050          100000        100000        100000        100000        100000        100000        100000        100000        100000        100000        100000       
3100          100000        100000        100000        100000        100000        100000        100000        100000        100000        100000        100000       
3150          100000        100000        100000        100000        100000        100000        100000        100000        100000        100000        100000       
3200          100000        100000        100000        100000        100000        100000        100000        100000        100000        100000        100000       
3250          100000        100000        100000        100000        100000        100000        100000        100000        100000        100000        100000       
3300          100000        100000        100000        100000        100000        100000        100000        100000        100000        100000        100000       
3350          100000        100000        100000        100000        100000        100000        100000        100000        100000        100000        100000       
3400          100000        100000        100000        100000        100000        100000        100000        100000        100000        100000        100000       
3450          100000        100000        100000        100000        100000        100000        100000        100000        100000        100000        100000       
3500          100000        100000        100000        100000        100000        100000        100000        100000        100000        100000        100000       
3550          100000        100000        100000        100000        100000        100000        100000        100000        100000        100000        100000       
3600          100000        100000        100000        100000        100000        100000        100000        100000        100000        100000        100000       
3650          100000        100000        100000        100000        100000        100000        100000        100000        100000        100000        100000       
3700          100000        100000        100000        100000        100000        100000        100000        100000        100000        100000        100000       
3750          100000        100000        100000        100000        100000        100000        100000        100000        100000        100000        100000       
3800          100000        100000        100000        100000        100000        100000        100000        100000        100000        100000        100000       
3850          100000        100000        100000        100000        100000        100000        100000        100000        100000        100000        100000       
3900          100000        100000        100000        100000        100000        100000        100000        100000        100000        100000        100000       
3950          100000        100000        100000        100000        100000        100000        100000        100000        100000        100000        100000       
4000          100000        100000        100000        100000        100000        100000        100000        100000        100000        100000        100000       
4050          100000        100000        100000        100000        100000        100000        100000        100000        100000        100000        100000       
4100          100000        100000        100000        100000        100000        100000        100000        100000        100000        100000        100000       
4150          100000        100000        100000        100000        100000        100000        100000        100000        100000        100000        100000       
4200          100000        100000        100000        100000        100000        100000        100000        100000        100000        100000        100000       
4250          100000        100000        100000        100000        100000        100000        100000        100000        100000        100000        100000       
4300          100000        100000        100000        100000        100000        100000        100000        100000        100000        100000        100000       
4350          100000        100000        100000        100000        100000        100000        100000        100000        100000        100000        100000       
4400          100000        100000        100000        100000        100000        100000        100000        100000        100000        100000        100000       
4450          100000        100000        100000        100000        100000        100000        100000        100000        100000        100000        100000       
4500          100000        100000        100000        100000        100000        100000        100000        100000        100000        100000        100000       
4550          100000        100000        100000        100000        100000        100000        100000        100000        100000        100000        100000       
4600          100000        100000        100000        100000        100000        100000        100000        100000        100000        100000        100000       
4650          100000        100000        100000        100000        100000        100000        100000        100000        100000        100000        100000       
4700          100000        100000        100000        100000        100000        100000        100000        100000        100000        100000        100000       
4750          100000        100000        100000        100000        100000        100000        100000        100000        100000        100000        100000       
4800          100000        100000        100000        100000        100000        100000        100000        100000        100000        100000        100000       
4850          100000        100000        100000        100000        100000        100000        100000        100000        100000        100000        100000       
4900          100000        100000        100000        100000        100000        100000        100000        100000        100000        100000        100000       
4950          100000        100000        100000        100000        100000        100000        100000        100000        100000        100000        100000       
5000          100000        100000        100000        100000        100000        100000        100000        100000        100000        100000        100000       
