# Probe 0 (0.0015 0.0015 0)
# Probe 1 (0.0015 0.0015 0.002)
# Probe 2 (0.0015 0.0015 0.004)
# Probe 3 (0.0015 0.0015 0.006)
# Probe 4 (0.0015 0.0015 0.008)
# Probe 5 (0.0015 0.0015 0.01)
# Probe 6 (0.0015 0.0015 0.012)
# Probe 7 (0.0015 0.0015 0.014)
# Probe 8 (0.0015 0.0015 0.016)
# Probe 9 (0.0015 0.0015 0.018)
# Probe 10 (0.0015 0.0015 0.02)
# Time        0             1             2             3             4             5             6             7             8             9             10           
50            158426        108325        73806.1       59968.4       54772.4       52807.5       51837.6       50739.3       48380.6       42728.4       29937.6      
100           176787        134110        93017.3       70287.9       59388.2       54380.2       51714         49318.2       45582.2       38726.4       26761.9      
150           185642        149075        108964        81731.9       65884         57350.2       52417.4       48452         43536.9       36099.9       24968.7      
200           190956        158561        120888        92194.6       72963.3       61159.5       53770.3       48102.6       42103.6       34292.3       23816.3      
250           194568        165159        129844        101080        79856         65414.6       55686         48298.6       41240.8       33076.2       23048.9      
300           197202        170034        136741        108443        86157.1       69767.9       58001.5       48978.8       40876.1       32314.2       22545.3      
350           199216        173789        142189        114533        91740.8       73985.9       60548.7       50046.5       40929.4       31913.7       22238.6      
400           200803        176765        146582        119603        96624.1       77941         63187.1       51397         41319.4       31803.4       22085.2      
450           202085        179178        150190        123862        100881        81581.5       65815.6       52935.5       41971         31925.7       22053.5      
500           203140        181169        153196        127475        104597        84900.6       68368.6       54584.2       42817.5       32231.4       22118.9      
550           204021        182837        155734        130570        107854        87912.8       70806.8       56281.6       43801         32678.7       22261.1      
600           204768        184252        157903        133246        110724        90644.3       73111.2       57983.1       44874.1       33230.9       22462.1      
650           205406        185466        159774        135579        113268        93122.6       75274.2       59656.7       45997.9       33856.8       22706.6      
700           205959        186519        161405        137630        115533        95374         77294.5       61279.8       47141.6       34530.5       22981.9      
750           206442        187439        162837        139444        117560        97422.8       79175.6       62837.7       48281.4       35230.3       23276.9      
800           206866        188250        164104        141060        119383        99290.6       80923.2       64320.8       49399.2       35938.8       23582.6      
850           207243        188970        165232        142507        121029        100996        82544         65723.7       50481.8       36642.3       23891.4      
900           207578        189612        166242        143808        122521        102557        84045.6       67044.1       51519.7       37329.2       24196.7      
950           207879        190189        167150        144984        123875        103986        85434.7       68281.6       52507.4       37993.8       24495.8      
1000          208151        190709        167971        146049        125108        105295        86718.6       69437.3       53441         38629.7       24784.5      
1050          208396        191179        168715        147017        126234        106496        87904.2       70513.4       54318.5       39233.1       25060.3      
1100          208619        191606        169391        147899        127262        107599        88998.3       71512.9       55139.4       39801.9       25321.7      
1150          208821        191995        170007        148704        128204        108611        90007.2       72439.1       55904.5       40335         25567.8      
1200          209006        192349        170569        149440        129066        109540        90936.7       73295.8       56615.3       40832.6       25798.2      
1250          209175        192673        171083        150113        129856        110394        91792.6       74087         57274         41295.2       26012.9      
1300          209329        192969        171554        150730        130580        111178        92580.1       74816.7       57882.9       41724         26212.3      
1350          209470        193240        171984        151295        131245        111898        93304.2       75488.7       58444.8       42120.4       26397        
1400          209599        193488        172379        151813        131854        112559        93969.7       76107         58962.6       42486.2       26567.6      
1450          209718        193716        172741        152288        132413        113166        94580.8       76675.4       59439         42823.2       26724.8      
1500          209826        193924        173072        152723        132926        113722        95141.9       77197.6       59877         43133.3       26869.5      
1550          209926        194116        173376        153122        133396        114233        95656.6       77676.7       60279         43417.9       27002.6      
1600          210017        194291        173655        153488        133827        114701        96128.7       78116.4       60648         43679.4       27124.7      
1650          210101        194451        173910        153824        134222        115130        96561.4       78519.3       60986.3       43919.1       27236.7      
1700          210177        194598        174144        154131        134584        115523        96957.8       78888.5       61296.2       44138.7       27339.4      
1750          210248        194733        174358        154413        134916        115883        97321.1       79226.7       61580.1       44340         27433.5      
1800          210312        194857        174555        154671        135220        116213        97653.6       79536.3       61839.9       44524.1       27519.5      
1850          210371        194970        174735        154907        135498        116515        97958.1       79819.7       62077.8       44692.6       27598.3      
1900          210425        195074        174900        155123        135753        116791        98236.6       80078.9       62295.3       44846.7       27670.4      
1950          210474        195169        175051        155322        135986        117044        98491.5       80316.2       62494.4       44987.7       27736.3      
2000          210519        195256        175189        155503        136199        117275        98724.6       80533         62676.2       45116.5       27796.5      
2050          210561        195335        175315        155669        136394        117487        98937.9       80731.4       62842.6       45234.4       27851.6      
2100          210599        195408        175431        155820        136573        117680        99132.8       80912.6       62994.6       45342         27901.9      
2150          210634        195475        175536        155959        136736        117857        99311.1       81078.4       63133.6       45440.4       27947.9      
2200          210665        195535        175633        156086        136885        118019        99473.9       81229.8       63260.5       45530.2       27989.9      
2250          210694        195591        175722        156202        137022        118167        99622.8       81368.2       63376.5       45612.3       28028.3      
2300          210721        195642        175802        156308        137146        118302        99758.8       81494.6       63482.4       45687.3       28063.3      
2350          210745        195689        175876        156405        137260        118426        99883.2       81610.1       63579.2       45755.8       28095.3      
2400          210767        195731        175944        156494        137364        118539        99996.7       81715.6       63667.5       45818.3       28124.5      
2450          210787        195770        176006        156575        137460        118642        100100        81812         63748.3       45875.4       28151.2      
2500          210806        195805        176062        156649        137547        118736        100195        81900         63822         45927.6       28175.6      
2550          210823        195838        176114        156716        137626        118822        100282        81980.4       63889.3       45975.2       28197.8      
2600          210838        195867        176161        156778        137698        118900        100361        82053.7       63950.8       46018.7       28218.1      
2650          210852        195895        176204        156834        137765        118972        100433        82120.8       64006.9       46058.4       28236.7      
2700          210865        195919        176243        156886        137825        119038        100499        82181.9       64058.1       46094.6       28253.6      
2750          210877        195942        176279        156933        137881        119098        100559        82237.8       64104.9       46127.7       28269        
2800          210888        195962        176312        156976        137931        119152        100614        82288.8       64147.5       46157.9       28283.2      
2850          210898        195981        176341        157015        137977        119202        100664        82335.3       64186.4       46185.4       28296        
2900          210906        195998        176369        157051        138019        119248        100710        82377.8       64222.1       46210.6       28307.8      
2950          210915        196014        176394        157083        138058        119289        100752        82416.6       64254.5       46233.5       28318.5      
3000          210922        196028        176416        157113        138092        119327        100790        82452         64284.1       46254.5       28328.2      
3050          210929        196042        176437        157141        138125        119362        100825        82484.3       64311.2       46273.6       28337.2      
3100          210935        196053        176456        157165        138154        119393        100856        82513.7       64335.8       46291         28345.3      
3150          210941        196065        176473        157188        138180        119422        100885        82540.6       64358.3       46306.9       28352.7      
3200          210945        196074        176489        157209        138204        119448        100911        82565         64378.7       46321.4       28359.5      
3250          210951        196084        176503        157227        138227        119472        100936        82587.4       64397.5       46334.6       28365.7      
3300          210954        196091        176517        157244        138246        119494        100957        82607.5       64414.3       46346.5       28371.3      
3350          210960        196100        176528        157260        138265        119513        100977        82625.9       64429.7       46357.4       28376.3      
3400          210962        196105        176539        157274        138281        119531        100995        82642.5       64443.7       46367.3       28381        
3450          210966        196112        176548        157287        138296        119548        101011        82657.9       64456.5       46376.4       28385.2      
3500          210968        196117        176558        157298        138310        119563        101026        82671.8       64468.2       46384.6       28389.1      
3550          210972        196123        176566        157309        138323        119576        101040        82684.6       64478.9       46392.2       28392.6      
3600          210973        196127        176574        157319        138334        119589        101053        82696.3       64488.7       46399.1       28395.8      
3650          210976        196132        176580        157328        138345        119600        101064        82707         64497.6       46405.5       28398.8      
3700          210978        196136        176587        157336        138354        119611        101075        82716.8       64505.8       46411.2       28401.5      
3750          210980        196140        176592        157344        138363        119620        101084        82725.5       64513.1       46416.4       28403.9      
3800          210981        196142        176598        157350        138371        119629        101093        82733.6       64519.9       46421.2       28406.2      
3850          210983        196146        176602        157357        138378        119636        101101        82740.7       64525.9       46425.5       28408.2      
3900          210984        196148        176605        157361        138383        119642        101107        82746.1       64530.4       46428.7       28409.7      
3950          210986        196151        176610        157367        138391        119650        101114        82753.4       64536.4       46432.9       28411.6      
4000          210987        196153        176613        157371        138395        119655        101119        82757.7       64540.1       46435.5       28412.8      
4050          210988        196155        176617        157376        138401        119661        101126        82763.8       64545.1       46439         28414.5      
4100          210989        196157        176620        157380        138405        119665        101130        82767.5       64548.2       46441.2       28415.5      
4150          210990        196158        176622        157383        138409        119669        101133        82771         64551.1       46443.3       28416.5      
4200          210990        196159        176624        157385        138412        119673        101137        82774.6       64554.2       46445.4       28417.5      
4250          210991        196161        176626        157388        138415        119677        101141        82778         64557         46447.5       28418.5      
4300          210992        196162        176628        157391        138418        119680        101144        82781.1       64559.7       46449.3       28419.4      
4350          210992        196163        176630        157393        138422        119683        101148        82784.6       64562.7       46451.5       28420.4      
4400          210993        196164        176631        157395        138423        119685        101150        82786.5       64564.3       46452.7       28420.9      
4450          210993        196164        176632        157396        138425        119687        101152        82788.2       64565.8       46453.7       28421.4      
4500          210993        196165        176633        157397        138426        119689        101153        82789.8       64567.1       46454.7       28421.9      
4550          210993        196165        176633        157397        138426        119689        101153        82789.8       64567.1       46454.7       28421.9      
4600          210993        196165        176633        157397        138426        119689        101153        82789.8       64567.1       46454.7       28421.9      
4650          210993        196165        176633        157397        138426        119689        101153        82789.8       64567.1       46454.7       28421.9      
4700          210993        196165        176633        157397        138426        119689        101153        82789.8       64567.1       46454.7       28421.9      
4750          210993        196165        176633        157397        138426        119689        101153        82789.8       64567.1       46454.7       28421.9      
4800          210993        196165        176633        157397        138426        119689        101153        82789.8       64567.1       46454.7       28421.9      
4850          210993        196165        176633        157397        138426        119689        101153        82789.8       64567.1       46454.7       28421.9      
4900          210993        196165        176633        157397        138426        119689        101153        82789.8       64567.1       46454.7       28421.9      
4950          210993        196165        176633        157397        138426        119689        101153        82789.8       64567.1       46454.7       28421.9      
5000          210993        196165        176633        157397        138426        119689        101153        82789.8       64567.1       46454.7       28421.9      
