# Probe 0 (0.0015 0.0015 0)
# Probe 1 (0.0015 0.0015 0.002)
# Probe 2 (0.0015 0.0015 0.004)
# Probe 3 (0.0015 0.0015 0.006)
# Probe 4 (0.0015 0.0015 0.008)
# Probe 5 (0.0015 0.0015 0.01)
# Probe 6 (0.0015 0.0015 0.012)
# Probe 7 (0.0015 0.0015 0.014)
# Probe 8 (0.0015 0.0015 0.016)
# Probe 9 (0.0015 0.0015 0.018)
# Probe 10 (0.0015 0.0015 0.02)
# Time        0             1             2             3             4             5             6             7             8             9             10           
50            (-25.2951 -25.2951 -5.03471e+07) (-3.23857 -3.23857 -3.02837e+07) (-18.2358 -18.2358 -1.27099e+07) (-6.88135 -6.88135 -4.75782e+06) (7.15839 7.15839 -1.64952e+06) (4.897 4.897 -563248) (6.42176 6.42176 -349713) (0.281988 0.281988 -732302) (-3.90998 -3.90998 -1.98975e+06) (-11.4504 -11.4504 -4.96092e+06) (-10.7564 -10.7564 -1.09859e+07)
100           (-11.5379 -11.5379 -3.8132e+07) (-36.0126 -36.0126 -3.01856e+07) (-28.8908 -28.8908 -1.83499e+07) (-5.72302 -5.72302 -9.15926e+06) (6.06142 6.06142 -4.11305e+06) (10.4299 10.4299 -1.85417e+06) (6.44549 6.44549 -1.16727e+06) (2.33098 2.33098 -1.50905e+06) (3.06078 3.06078 -2.84336e+06) (5.37061 5.37061 -5.36641e+06) (7.84127 7.84127 -9.03611e+06)
150           (0.257331 0.257331 -3.1768e+07) (-21.6836 -21.6836 -2.70125e+07) (-48.2096 -48.2096 -1.99394e+07) (-22.2178 -22.2178 -1.23001e+07) (-11.5535 -11.5535 -6.67332e+06) (0.958194 0.958195 -3.52962e+06) (5.64265 5.64265 -2.27018e+06) (1.04589 1.04589 -2.3316e+06) (5.89166 5.89166 -3.4297e+06) (6.54888 6.54888 -5.40047e+06) (14.7741 14.7741 -7.85842e+06)
200           (-23.5324 -23.5324 -2.78705e+07) (-2.94876 -2.94876 -2.43089e+07) (-13.8336 -13.8336 -1.97174e+07) (-7.20929 -7.20929 -1.39776e+07) (-3.15687 -3.15687 -8.77964e+06) (-0.332046 -0.332046 -5.25295e+06) (0.725224 0.725224 -3.49919e+06) (-0.0320935 -0.0320935 -3.16784e+06) (-0.043379 -0.043379 -3.89624e+06) (3.64179 3.64179 -5.35582e+06) (-1.51738 -1.51738 -7.07842e+06)
250           (7.00895 7.00895 -2.51979e+07) (-4.35001 -4.35001 -2.22258e+07) (23.3201 23.3201 -1.89879e+07) (13.6867 13.6867 -1.46833e+07) (11.2829 11.2829 -1.02754e+07) (8.32334 8.32334 -6.79287e+06) (7.41273 7.41273 -4.72454e+06) (2.93312 2.93312 -4.00495e+06) (-2.60166 -2.60166 -4.33201e+06) (-0.493204 -0.493204 -5.33799e+06) (0.240557 0.240557 -6.55408e+06)
300           (-0.533013 -0.533013 -2.32382e+07) (6.677 6.677 -2.06057e+07) (2.9121 2.9121 -1.8187e+07) (-3.61733 -3.61733 -1.48776e+07) (-11.9005 -11.9005 -1.12452e+07) (-10.1532 -10.1532 -8.04501e+06) (-5.78235 -5.78235 -5.85194e+06) (-2.37648 -2.37648 -4.81821e+06) (0.176159 0.176159 -4.7697e+06) (-0.745224 -0.745224 -5.37843e+06) (9.0181 9.0181 -6.21215e+06)
350           (-3.81665 -3.81665 -2.1736e+07) (3.25446 3.25446 -1.93204e+07) (-4.01436 -4.01436 -1.74378e+07) (-5.087 -5.087 -1.48257e+07) (-9.92156 -9.92156 -1.18389e+07) (-10.2873 -10.2873 -9.00294e+06) (-5.72231 -5.72231 -6.82957e+06) (-1.1837 -1.1837 -5.58108e+06) (0.518643 0.518643 -5.21408e+06) (-0.0441397 -0.0441397 -5.4806e+06) (6.64586 6.64586 -6.00989e+06)
400           (-5.0506 -5.0506 -2.0549e+07) (1.79413 1.79413 -1.82807e+07) (-4.54832 -4.54832 -1.677e+07) (-4.40655 -4.40655 -1.46598e+07) (-7.30025 -7.30025 -1.21842e+07) (-8.59362 -8.59362 -9.70846e+06) (-5.62314 -5.62314 -7.64225e+06) (-1.04052 -1.04052 -6.27363e+06) (0.602825 0.602825 -5.65734e+06) (-0.239057 -0.239057 -5.6372e+06) (5.0917 5.0917 -5.91759e+06)
450           (29.9603 29.9603 -1.9589e+07) (48.5154 48.5154 -1.74252e+07) (34.6664 34.6664 -1.61837e+07) (41.684 41.684 -1.44446e+07) (36.5338 36.5338 -1.23692e+07) (25.7851 25.7851 -1.02155e+07) (13.1646 13.1646 -8.29823e+06) (3.21134 3.21133 -6.88524e+06) (-3.03467 -3.03467 -6.08895e+06) (-8.52298 -8.52298 -5.83694e+06) (-2.99692 -2.99692 -5.91319e+06)
500           (25.0853 25.0853 -1.87983e+07) (39.7026 39.7026 -1.67114e+07) (28.6229 28.6229 -1.56704e+07) (34.5524 34.5524 -1.42125e+07) (31.0287 31.0287 -1.24518e+07) (23.5042 23.5042 -1.0574e+07) (13.7924 13.7924 -8.81797e+06) (5.23978 5.23978 -7.41413e+06) (-0.623327 -0.623327 -6.49973e+06) (-6.38519 -6.3852 -6.06787e+06) (-3.22328 -3.22328 -5.97873e+06)
550           (-51.2417 -51.2417 -1.81365e+07) (-77.5093 -77.5093 -1.61087e+07) (-74.96 -74.96 -1.52203e+07) (-69.5286 -69.5286 -1.39797e+07) (-53.6368 -53.6368 -1.24686e+07) (-29.8795 -29.8795 -1.08232e+07) (-5.61292 -5.61292 -9.2248e+06) (11.6473 11.6473 -7.86455e+06) (19.8948 19.8948 -6.88295e+06) (19.3607 19.3607 -6.31857e+06) (5.22638 5.22638 -6.09946e+06)
600           (44.356 44.356 -1.75759e+07) (37.0703 37.0703 -1.55929e+07) (52.9041 52.9041 -1.48236e+07) (43.8444 43.8444 -1.37536e+07) (31.9817 31.9817 -1.24427e+07) (18.2189 18.2189 -1.09924e+07) (4.74294 4.74294 -9.54119e+06) (-5.99801 -5.99801 -8.24473e+06) (-10.6597 -10.6597 -7.23559e+06) (-6.82845 -6.82845 -6.58026e+06) (-14.7798 -14.7798 -6.26199e+06)
650           (38.9682 38.9682 -1.70956e+07) (33.5539 33.5539 -1.51472e+07) (52.372 52.372 -1.44722e+07) (45.6318 45.6318 -1.35384e+07) (37.5588 37.5588 -1.23898e+07) (26.2809 26.2809 -1.11033e+07) (13.9167 13.9167 -9.78611e+06) (3.04526 3.04526 -8.56401e+06) (-4.2359 -4.2359 -7.55669e+06) (-1.89233 -1.89233 -6.84531e+06) (-12.9949 -12.9949 -6.45513e+06)
700           (31.658 31.658 -1.66797e+07) (27.8635 27.8635 -1.47585e+07) (44.2951 44.2951 -1.41595e+07) (39.5811 39.5811 -1.33357e+07) (34.0619 34.0619 -1.23202e+07) (25.41 25.41 -1.11722e+07) (15.0858 15.0858 -9.97535e+06) (5.45105 5.45105 -8.83181e+06) (-2.10643 -2.10643 -7.84703e+06) (-0.861128 -0.861128 -7.10792e+06) (-11.4108 -11.4108 -6.66944e+06)
750           (24.9006 24.9006 -1.63164e+07) (22.5549 22.5549 -1.44169e+07) (36.3414 36.3414 -1.38798e+07) (33.1809 33.1809 -1.3146e+07) (29.5162 29.5162 -1.2241e+07) (23.1264 23.1264 -1.12107e+07) (14.947 14.947 -1.01215e+07) (6.83827 6.83827 -9.05683e+06) (-0.417828 -0.417828 -8.10861e+06) (0.0324945 0.0324945 -7.36382e+06) (-9.16257 -9.16257 -6.89691e+06)
800           (18.9666 18.9666 -1.59964e+07) (17.9045 17.9045 -1.41145e+07) (29.1487 29.1487 -1.36284e+07) (27.1407 27.1407 -1.29693e+07) (24.8353 24.8353 -1.21569e+07) (20.245 20.245 -1.12276e+07) (13.9506 13.9506 -1.02346e+07) (7.32955 7.32955 -9.24668e+06) (0.684899 0.684899 -8.34393e+06) (0.543913 0.543913 -7.61004e+06) (-6.63249 -6.63249 -7.1309e+06)
850           (13.6555 13.6555 -1.57126e+07) (13.8145 13.8145 -1.3845e+07) (22.5315 22.5315 -1.34015e+07) (21.3908 21.3908 -1.28052e+07) (20.0671 20.0671 -1.20713e+07) (16.8988 16.8988 -1.12292e+07) (12.2362 12.2362 -1.03222e+07) (7.04348 7.04348 -9.4078e+06) (1.29641 1.29641 -8.55568e+06) (0.644314 0.644314 -7.84468e+06) (-4.10254 -4.10254 -7.36606e+06)
900           (12.3173 12.3173 -1.54599e+07) (19.9302 19.9302 -1.36032e+07) (16.9307 16.9307 -1.31959e+07) (15.8701 15.8701 -1.26527e+07) (13.3076 13.3076 -1.19862e+07) (9.01278 9.01278 -1.12202e+07) (3.63882 3.63882 -1.03905e+07) (-1.84872 -1.84872 -9.5457e+06) (-6.19429 -6.19429 -8.74666e+06) (-9.1489 -9.1489 -8.06682e+06) (-4.91765 -4.91765 -7.59755e+06)
950           (10.3143 10.3143 -1.52327e+07) (15.4867 15.4867 -1.33863e+07) (13.4851 13.4851 -1.30093e+07) (12.9902 12.9902 -1.25117e+07) (10.9393 10.9393 -1.19034e+07) (7.66128 7.66128 -1.12041e+07) (3.45182 3.45182 -1.04439e+07) (-1.15914 -1.15914 -9.66432e+06) (-5.18824 -5.18824 -8.91894e+06) (-8.82252 -8.82252 -8.27547e+06) (-7.22305 -7.22305 -7.82366e+06)
1000          (8.80793 8.80793 -1.5028e+07) (14.2218 14.2218 -1.31902e+07) (12.4527 12.4527 -1.28395e+07) (12.0272 12.0272 -1.23813e+07) (10.4992 10.4992 -1.18238e+07) (7.86466 7.86466 -1.11834e+07) (4.26524 4.26524 -1.0486e+07) (0.0677587 0.0677587 -9.76723e+06) (-4.03785 -4.03785 -9.07477e+06) (-8.60119 -8.60119 -8.47072e+06) (-9.15425 -9.15425 -8.0413e+06)
1050          (8.40258 8.40258 -1.48428e+07) (13.2306 13.2306 -1.30124e+07) (11.9031 11.9031 -1.26846e+07) (11.8361 11.8361 -1.22608e+07) (10.6441 10.6441 -1.1748e+07) (8.387 8.387 -1.11601e+07) (5.17613 5.17613 -1.05194e+07) (1.2253 1.2253 -9.85729e+06) (-2.98233 -2.98233 -9.2161e+06) (-8.26416 -8.26416 -8.65274e+06) (-10.5852 -10.5852 -8.2488e+06)
1100          (8.0807 8.0807 -1.46748e+07) (12.7533 12.7533 -1.28508e+07) (11.8016 11.8016 -1.25431e+07) (11.8712 11.8712 -1.21497e+07) (10.9371 10.9371 -1.16764e+07) (8.9821 8.9821 -1.11356e+07) (6.0379 6.0379 -1.05464e+07) (2.23936 2.23936 -9.93674e+06) (-2.0589 -2.0589 -9.34459e+06) (-7.85367 -7.85367 -8.82191e+06) (-11.5304 -11.5304 -8.4451e+06)
1150          (7.94325 7.94325 -1.45218e+07) (12.2681 12.2681 -1.27035e+07) (11.648 11.648 -1.24135e+07) (11.8947 11.8947 -1.20471e+07) (11.1586 11.1586 -1.16093e+07) (9.41688 9.41688 -1.11107e+07) (6.67951 6.67951 -1.05684e+07) (3.01855 3.01855 -1.00074e+07) (-1.3055 -1.3055 -9.46164e+06) (-7.39796 -7.39796 -8.97874e+06) (-12.0287 -12.0287 -8.62964e+06)
1200          (7.738 7.738 -1.43824e+07) (11.8128 11.8128 -1.25691e+07) (11.4551 11.4551 -1.22949e+07) (11.7928 11.7928 -1.19526e+07) (11.2062 11.2062 -1.15466e+07) (9.64549 9.64549 -1.10862e+07) (7.08824 7.08824 -1.05867e+07) (3.56797 3.56797 -1.00705e+07) (-0.716077 -0.716077 -9.56845e+06) (-6.92156 -6.92156 -9.12383e+06) (-12.1665 -12.1665 -8.80223e+06)
1250          (7.50096 7.50096 -1.42551e+07) (11.2801 11.2801 -1.24462e+07) (11.1199 11.1199 -1.21862e+07) (11.532 11.532 -1.18656e+07) (11.0609 11.0609 -1.14882e+07) (9.64776 9.64776 -1.10625e+07) (7.25767 7.25767 -1.06022e+07) (3.89694 3.89694 -1.01273e+07) (-0.279569 -0.279569 -9.66606e+06) (-6.44108 -6.44108 -9.25784e+06) (-12.0182 -12.0182 -8.96297e+06)
1300          (7.1881 7.1881 -1.41386e+07) (10.7004 10.7004 -1.23337e+07) (10.6807 10.6807 -1.20866e+07) (11.1259 11.1259 -1.17855e+07) (10.741 10.741 -1.14341e+07) (9.45769 9.45769 -1.10399e+07) (7.22911 7.22911 -1.06153e+07) (4.04479 4.04479 -1.01787e+07) (0.0293614 0.0293614 -9.75535e+06) (-5.96839 -5.96839 -9.38141e+06) (-11.6581 -11.6581 -9.11216e+06)
1350          (6.829 6.829 -1.4032e+07) (10.0723 10.0723 -1.22307e+07) (10.1457 10.1457 -1.19952e+07) (10.6054 10.6054 -1.17119e+07) (10.2858 10.2858 -1.13841e+07) (9.11563 9.11563 -1.10186e+07) (7.04385 7.04385 -1.06268e+07) (4.04964 4.04964 -1.02252e+07) (0.235705 0.235705 -9.83709e+06) (-5.51115 -5.51115 -9.49523e+06) (-11.1485 -11.1485 -9.25023e+06)
1400          (6.4308 6.4308 -1.39344e+07) (9.42314 9.42314 -1.21364e+07) (9.55373 9.55373 -1.19113e+07) (10.0081 10.0081 -1.16442e+07) (9.73709 9.73709 -1.13379e+07) (8.66833 8.66833 -1.09987e+07) (6.74863 6.74863 -1.06369e+07) (3.95168 3.95168 -1.02676e+07) (0.364665 0.364665 -9.91195e+06) (-5.0744 -5.0744 -9.59993e+06) (-10.5422 -10.5422 -9.37773e+06)
1450          (6.01513 6.01513 -1.3845e+07) (8.76807 8.76807 -1.20499e+07) (8.92903 8.92903 -1.18345e+07) (9.36761 9.36761 -1.15821e+07) (9.13322 9.13322 -1.12954e+07) (8.15535 8.15535 -1.09801e+07) (6.38171 6.38171 -1.06458e+07) (3.78373 3.78373 -1.03062e+07) (0.437067 0.437067 -9.98054e+06) (-4.66122 -4.66122 -9.69617e+06) (-9.88122 -9.88122 -9.49522e+06)
1500          (-1.3017 -1.3017 -1.3763e+07) (5.01105 5.01105 -1.19706e+07) (3.64031 3.64031 -1.17641e+07) (4.48761 4.48761 -1.15251e+07) (4.84297 4.84297 -1.12564e+07) (4.81021 4.81021 -1.09631e+07) (4.33685 4.33685 -1.0654e+07) (3.35109 3.35109 -1.03415e+07) (1.97785 1.97785 -1.00435e+07) (-1.29683 -1.29683 -9.78462e+06) (-3.53425 -3.53425 -9.60348e+06)
1550          (1.91834 1.91834 -1.36878e+07) (3.7012 3.7012 -1.18979e+07) (2.93479 2.93479 -1.16993e+07) (2.95252 2.95252 -1.14727e+07) (2.67485 2.67485 -1.12203e+07) (2.15456 2.15456 -1.09472e+07) (1.36424 1.36424 -1.06611e+07) (0.276195 0.276195 -1.03737e+07) (-1.08598 -1.08598 -1.0101e+07) (-3.73469 -3.73469 -9.86568e+06) (-5.83903 -5.83903 -9.70274e+06)
1600          (-11.4445 -11.4445 -1.3619e+07) (-13.305 -13.305 -1.18314e+07) (-18.2204 -18.2204 -1.16401e+07) (-21.2503 -21.2503 -1.14248e+07) (-22.7762 -22.7762 -1.11875e+07) (-22.774 -22.774 -1.09328e+07) (-21.0912 -21.0912 -1.06678e+07) (-17.6657 -17.6657 -1.04033e+07) (-12.7515 -12.7515 -1.01539e+07) (-7.10201 -7.10201 -9.94014e+06) (2.59416 2.59416 -9.79408e+06)
1650          (-10.4559 -10.4559 -1.35558e+07) (-12.5806 -12.5806 -1.17703e+07) (-17.0259 -17.0259 -1.15858e+07) (-19.686 -19.686 -1.13808e+07) (-21.0882 -21.0882 -1.11573e+07) (-21.0525 -21.0525 -1.09194e+07) (-19.4633 -19.4633 -1.06739e+07) (-16.3008 -16.3008 -1.04303e+07) (-11.755 -11.755 -1.02022e+07) (-6.62452 -6.62452 -1.00083e+07) (2.28348 2.28348 -9.87775e+06)
1700          (-2.20645 -2.20645 -1.3498e+07) (1.55784 1.55784 -1.17143e+07) (1.16866 1.16866 -1.1536e+07) (1.5761 1.5761 -1.13405e+07) (1.97717 1.97717 -1.11296e+07) (2.20516 2.20516 -1.09072e+07) (2.23415 2.23415 -1.06794e+07) (2.01857 2.01857 -1.0455e+07) (1.46234 1.46234 -1.02464e+07) (-0.0501204 -0.0501204 -1.00708e+07) (-3.42176 -3.42176 -9.95442e+06)
1750          (-8.73099 -8.73099 -1.34449e+07) (-10.5542 -10.5542 -1.1663e+07) (-14.3076 -14.3076 -1.14904e+07) (-16.4829 -16.4829 -1.13036e+07) (-17.6845 -17.6845 -1.11043e+07) (-17.662 -17.662 -1.0896e+07) (-16.3365 -16.3365 -1.06845e+07) (-13.7013 -13.7013 -1.04777e+07) (-9.87011 -9.87011 -1.0287e+07) (-5.61692 -5.61692 -1.0128e+07) (1.8112 1.8112 -1.00247e+07)
1800          (-1.85585 -1.85585 -1.33964e+07) (1.34397 1.34397 -1.16161e+07) (1.01882 1.01882 -1.14486e+07) (1.32014 1.32014 -1.12698e+07) (1.65919 1.65919 -1.10811e+07) (1.85192 1.85192 -1.08858e+07) (1.87268 1.87268 -1.06891e+07) (1.6925 1.6925 -1.04985e+07) (1.22663 1.22663 -1.03242e+07) (-0.0311121 -0.0311121 -1.01803e+07) (-2.89944 -2.89944 -1.00889e+07)
1850          (-7.27409 -7.27409 -1.33518e+07) (-8.85366 -8.85366 -1.1573e+07) (-11.9972 -11.9972 -1.14103e+07) (-13.795 -13.795 -1.12388e+07) (-14.8065 -14.8065 -1.10599e+07) (-14.7902 -14.7902 -1.08765e+07) (-13.6742 -13.6742 -1.06935e+07) (-11.4619 -11.4619 -1.05176e+07) (-8.24896 -8.24896 -1.03582e+07) (-4.68581 -4.68581 -1.02283e+07) (1.50888 1.50888 -1.01478e+07)
1900          (-1.55598 -1.55598 -1.33111e+07) (1.16742 1.16742 -1.15336e+07) (0.879458 0.879458 -1.13753e+07) (1.10441 1.10441 -1.12105e+07) (1.38948 1.38948 -1.10405e+07) (1.552 1.552 -1.0868e+07) (1.56573 1.56573 -1.06974e+07) (1.41516 1.41516 -1.0535e+07) (1.03066 1.03066 -1.03893e+07) (-0.0123217 -0.0123218 -1.02721e+07) (-2.41947 -2.41947 -1.02016e+07)
1950          (-6.0516 -6.0516 -1.32737e+07) (-7.41676 -7.41676 -1.14975e+07) (-10.0408 -10.0408 -1.13433e+07) (-11.5296 -11.5296 -1.11846e+07) (-12.382 -12.382 -1.10228e+07) (-12.3696 -12.3696 -1.08603e+07) (-11.4304 -11.4304 -1.07011e+07) (-9.57489 -9.57489 -1.0551e+07) (-6.88351 -6.88351 -1.04178e+07) (-3.89996 -3.89996 -1.03122e+07) (1.26776 1.26776 -1.02508e+07)
2000          (-1.29786 -1.29786 -1.32396e+07) (1.01468 1.01468 -1.14645e+07) (0.757192 0.757192 -1.13139e+07) (0.925453 0.925453 -1.11609e+07) (1.16567 1.16567 -1.10066e+07) (1.30108 1.30108 -1.08532e+07) (1.30886 1.30886 -1.07045e+07) (1.18291 1.18291 -1.05657e+07) (0.865612 0.865612 -1.04439e+07) (0.00184999 0.00184998 -1.03489e+07) (-2.01056 -2.01056 -1.02958e+07)
2050          (-5.02916 -5.02916 -1.32083e+07) (-6.20229 -6.20229 -1.14343e+07) (-8.39028 -8.39028 -1.12871e+07) (-9.62492 -9.62492 -1.11393e+07) (-10.3431 -10.3431 -1.09918e+07) (-10.3331 -10.3331 -1.08468e+07) (-9.54342 -9.54342 -1.07076e+07) (-7.98905 -7.98905 -1.05791e+07) (-5.73696 -5.73696 -1.04677e+07) (-3.24111 -3.24111 -1.03824e+07) (1.06756 1.06756 -1.03369e+07)
2100          (-1.07676 -1.07676 -1.31797e+07) (0.881524 0.881524 -1.14066e+07) (0.65255 0.65255 -1.12625e+07) (0.778739 0.778739 -1.11194e+07) (0.980756 0.980756 -1.09783e+07) (1.09269 1.09269 -1.08409e+07) (1.09596 1.09596 -1.07105e+07) (0.990509 0.990509 -1.05914e+07) (0.728354 0.728354 -1.04895e+07) (0.013013 0.013013 -1.0413e+07) (-1.6672 -1.6672 -1.03744e+07)
2150          (-4.17525 -4.17525 -1.31535e+07) (-5.17738 -5.17738 -1.13813e+07) (-7.00132 -7.00132 -1.12401e+07) (-8.02628 -8.02628 -1.11013e+07) (-8.63069 -8.63069 -1.09659e+07) (-8.62242 -8.62242 -1.08356e+07) (-7.95957 -7.95957 -1.07132e+07) (-6.65888 -6.65888 -1.06027e+07) (-4.77612 -4.77612 -1.05095e+07) (-2.69006 -2.69006 -1.04411e+07) (0.900032 0.900032 -1.04088e+07)
2200          (-0.888456 -0.888456 -1.31296e+07) (0.765942 0.765942 -1.13582e+07) (0.564071 0.564071 -1.12196e+07) (0.658932 0.658932 -1.10848e+07) (0.828239 0.828239 -1.09546e+07) (0.92032 0.92032 -1.08307e+07) (0.920387 0.920387 -1.07156e+07) (0.831944 0.831944 -1.06129e+07) (0.614967 0.614967 -1.05277e+07) (0.0221922 0.0221922 -1.04666e+07) (-1.38038 -1.38038 -1.04401e+07)
2250          (-3.46264 -3.46264 -1.31077e+07) (-4.31412 -4.31412 -1.13371e+07) (-5.83461 -5.83461 -1.12008e+07) (-6.68625 -6.68625 -1.10697e+07) (-7.19435 -7.19435 -1.09443e+07) (-7.18764 -7.18764 -1.08263e+07) (-6.6321 -6.6321 -1.07179e+07) (-5.54476 -5.54476 -1.06224e+07) (-3.97205 -3.97205 -1.05444e+07) (-2.22984 -2.22984 -1.049e+07) (0.759574 0.759574 -1.04688e+07)
2300          (-0.728837 -0.728837 -1.30877e+07) (0.666275 0.666275 -1.13177e+07) (0.489714 0.489714 -1.11837e+07) (0.561134 0.561134 -1.10559e+07) (0.702533 0.702533 -1.09349e+07) (0.778027 0.778027 -1.08222e+07) (0.77588 0.77588 -1.07199e+07) (0.701529 0.701529 -1.0631e+07) (0.521573 0.521574 -1.05596e+07) (0.0299213 0.0299213 -1.05114e+07) (-1.14141 -1.14141 -1.04949e+07)
2350          (-2.86823 -2.86823 -1.30693e+07) (-3.58833 -3.58833 -1.13e+07) (-4.85601 -4.85601 -1.1168e+07) (-5.56416 -5.56416 -1.10433e+07) (-5.99093 -5.99093 -1.09264e+07) (-5.9857 -5.9857 -1.08186e+07) (-5.52082 -5.52082 -1.07218e+07) (-4.61266 -4.61266 -1.06389e+07) (-3.29989 -3.29989 -1.05735e+07) (-1.84584 -1.84584 -1.05309e+07) (0.641765 0.641765 -1.05188e+07)
2400          (4.31109 4.31109 -1.30526e+07) (-4.32586 -4.32586 -1.12839e+07) (-7.96752 -7.96752 -1.11537e+07) (-11.2955 -11.2955 -1.10318e+07) (-13.9051 -13.9051 -1.09186e+07) (-15.674 -15.674 -1.08153e+07) (-16.4077 -16.4077 -1.07236e+07) (-15.9434 -15.9434 -1.06461e+07) (-14.1796 -14.1796 -1.05863e+07) (-10.9954 -10.9954 -1.05487e+07) (-11.9536 -11.9536 -1.05407e+07)
2450          (1.2221 1.2221 -1.30373e+07) (0.241896 0.241896 -1.12691e+07) (-0.418589 -0.418589 -1.11406e+07) (-1.14804 -1.14804 -1.10212e+07) (-1.92447 -1.92447 -1.09114e+07) (-2.54276 -2.54276 -1.08122e+07) (-2.99999 -2.99999 -1.07252e+07) (-3.27854 -3.27854 -1.06527e+07) (-3.37382 -3.37382 -1.05979e+07) (-3.18931 -3.18931 -1.0565e+07) (-1.93863 -1.93863 -1.05606e+07)
2500          (-5.49713 -5.49713 -1.30234e+07) (-13.2676 -13.2676 -1.12556e+07) (-17.3943 -17.3943 -1.11287e+07) (-20.9577 -20.9577 -1.10116e+07) (-22.8414 -22.8414 -1.09049e+07) (-23.32 -23.32 -1.08094e+07) (-22.0898 -22.0898 -1.07267e+07) (-19.0502 -19.0502 -1.06588e+07) (-14.3285 -14.3285 -1.06085e+07) (-8.10787 -8.10787 -1.05799e+07) (-3.78388 -3.78388 -1.05788e+07)
2550          (1.53127 1.53127 -1.30106e+07) (0.352195 0.352195 -1.12433e+07) (0.110902 0.110902 -1.11177e+07) (-0.48997 -0.48997 -1.10028e+07) (-1.24793 -1.24793 -1.08989e+07) (-1.78714 -1.78714 -1.08068e+07) (-2.22599 -2.22599 -1.0728e+07) (-2.54287 -2.54287 -1.06642e+07) (-2.74128 -2.74128 -1.06182e+07) (-2.63138 -2.63138 -1.05935e+07) (-1.7625 -1.7625 -1.05954e+07)
2600          (-4.91433 -4.91433 -1.2999e+07) (-10.9686 -10.9686 -1.1232e+07) (-14.7367 -14.7367 -1.11078e+07) (-17.7218 -17.7218 -1.09948e+07) (-19.1595 -19.1595 -1.08935e+07) (-19.5662 -19.5662 -1.08046e+07) (-18.5195 -18.5195 -1.07292e+07) (-15.9435 -15.9435 -1.06693e+07) (-11.9517 -11.9517 -1.06271e+07) (-6.75617 -6.75617 -1.06059e+07) (-3.0622 -3.0622 -1.06106e+07)
2650          (1.45655 1.45655 -1.29883e+07) (0.099019 0.0990189 -1.12218e+07) (0.152487 0.152487 -1.10986e+07) (-0.310054 -0.310054 -1.09874e+07) (-1.05878 -1.05878 -1.08885e+07) (-1.49256 -1.49256 -1.08024e+07) (-1.84748 -1.84748 -1.07303e+07) (-2.12053 -2.12053 -1.06739e+07) (-2.28822 -2.28822 -1.06352e+07) (-2.19163 -2.19163 -1.06172e+07) (-1.47109 -1.47109 -1.06244e+07)
2700          (-4.33086 -4.33086 -1.29786e+07) (-8.95806 -8.95806 -1.12123e+07) (-12.452 -12.452 -1.10903e+07) (-14.9656 -14.9656 -1.09808e+07) (-16.0266 -16.0266 -1.0884e+07) (-16.3813 -16.3813 -1.08005e+07) (-15.5061 -15.5061 -1.07314e+07) (-13.3229 -13.3229 -1.06781e+07) (-9.96118 -9.96118 -1.06426e+07) (-5.60601 -5.60601 -1.06275e+07) (-2.47014 -2.47014 -1.06371e+07)
2750          (-0.666816 -0.666816 -1.29696e+07) (-6.63664 -6.63664 -1.12039e+07) (-8.67227 -8.67227 -1.10828e+07) (-10.4296 -10.4296 -1.09747e+07) (-12.2011 -12.2011 -1.08798e+07) (-12.6071 -12.6071 -1.07988e+07) (-12.1016 -12.1016 -1.07323e+07) (-10.7098 -10.7098 -1.06819e+07) (-8.21348 -8.21348 -1.06493e+07) (-4.9658 -4.9658 -1.0637e+07) (-2.97706 -2.97706 -1.06486e+07)
2800          (-1.88381 -1.88381 -1.29616e+07) (-0.887755 -0.887755 -1.11959e+07) (-2.62382 -2.62382 -1.10758e+07) (-3.34375 -3.34375 -1.09691e+07) (-3.1971 -3.1971 -1.0876e+07) (-3.34838 -3.34838 -1.07971e+07) (-3.2074 -3.2074 -1.07332e+07) (-2.71714 -2.71714 -1.06854e+07) (-2.0302 -2.0302 -1.06555e+07) (-1.23769 -1.23769 -1.06456e+07) (0.273539 0.273539 -1.06591e+07)
2850          (1.29241 1.29241 -1.29541e+07) (3.66502 3.66502 -1.11889e+07) (8.74193 8.74193 -1.10695e+07) (12.1351 12.1351 -1.0964e+07) (13.7871 13.7871 -1.08726e+07) (15.3833 15.3833 -1.07957e+07) (15.9511 15.9511 -1.0734e+07) (15.1898 15.1898 -1.06886e+07) (13.1945 13.1945 -1.06611e+07) (9.93064 9.93064 -1.06534e+07) (2.65917 2.65917 -1.06688e+07)
2900          (-0.541244 -0.541244 -1.29475e+07) (-1.27682 -1.27682 -1.11822e+07) (-4.66414 -4.66414 -1.10637e+07) (-6.15724 -6.15724 -1.09594e+07) (-6.56273 -6.56273 -1.08694e+07) (-7.37227 -7.37227 -1.07943e+07) (-7.57955 -7.57955 -1.07347e+07) (-7.07106 -7.07106 -1.06916e+07) (-6.01043 -6.01043 -1.06662e+07) (-4.40114 -4.40114 -1.06606e+07) (-3.54704 -3.54704 -1.06775e+07)
2950          (-0.0979083 -0.0979083 -1.29411e+07) (-2.887 -2.887 -1.11764e+07) (-1.77491 -1.77491 -1.10584e+07) (-1.96075 -1.96075 -1.09551e+07) (-2.91933 -2.91933 -1.08666e+07) (-2.74379 -2.74379 -1.07931e+07) (-2.49327 -2.49327 -1.07354e+07) (-2.17919 -2.17919 -1.06942e+07) (-1.59499 -1.59499 -1.06709e+07) (-0.918302 -0.918302 -1.06672e+07) (0.34133 0.34133 -1.06855e+07)
3000          (-2.0572 -2.0572 -1.29357e+07) (6.9271 6.9271 -1.11708e+07) (6.93457 6.93457 -1.10536e+07) (8.63862 8.63862 -1.09513e+07) (11.4183 11.4183 -1.0864e+07) (12.3103 12.3103 -1.0792e+07) (12.5402 12.5402 -1.0736e+07) (12.0234 12.0234 -1.06967e+07) (10.3799 10.3799 -1.06752e+07) (7.70528 7.70528 -1.06731e+07) (1.78726 1.78726 -1.06928e+07)
3050          (2.81974 2.81974 -1.29303e+07) (2.8887 2.8887 -1.11661e+07) (10.553 10.553 -1.10492e+07) (14.5682 14.5682 -1.09476e+07) (15.9416 15.9416 -1.08616e+07) (18.1493 18.1493 -1.0791e+07) (18.7092 18.7092 -1.07365e+07) (17.7193 17.7193 -1.06989e+07) (15.3432 15.3432 -1.06791e+07) (11.498 11.498 -1.06786e+07) (2.26944 2.26944 -1.06995e+07)
3100          (4.6951 4.6951 -1.2926e+07) (17.2809 17.2809 -1.1161e+07) (12.4174 12.4174 -1.10452e+07) (14.0721 14.0721 -1.09446e+07) (17.6088 17.6088 -1.08593e+07) (15.9452 15.9452 -1.07901e+07) (14.5373 14.5373 -1.0737e+07) (11.9875 11.9875 -1.07009e+07) (7.895 7.895 -1.06826e+07) (2.83778 2.83778 -1.06835e+07) (-9.63695 -9.63695 -1.07056e+07)
3150          (3.56192 3.56192 -1.29211e+07) (-7.15304 -7.15304 -1.1158e+07) (9.8379 9.8379 -1.10414e+07) (11.7504 11.7504 -1.09414e+07) (10.9155 10.9155 -1.08575e+07) (15.378 15.378 -1.07892e+07) (15.6183 15.6183 -1.07375e+07) (14.9553 14.9553 -1.07028e+07) (13.4889 13.4889 -1.06859e+07) (10.6074 10.6074 -1.06881e+07) (3.60751 3.60751 -1.07111e+07)
3200          (-6.5714 -6.5714 -1.2918e+07) (15.779 15.779 -1.11529e+07) (4.40975 4.40975 -1.10383e+07) (6.28077 6.28077 -1.09391e+07) (12.2281 12.2281 -1.08555e+07) (10.8274 10.8274 -1.07885e+07) (11.0181 11.0181 -1.0738e+07) (10.4408 10.4408 -1.07045e+07) (8.37806 8.37806 -1.06889e+07) (5.57289 5.57289 -1.06922e+07) (-0.720193 -0.720193 -1.07162e+07)
3250          (-4.62077 -4.62077 -1.29137e+07) (-12.5606 -12.5606 -1.11506e+07) (-7.93378 -7.93378 -1.10352e+07) (-11.6862 -11.6862 -1.09363e+07) (-15.054 -15.054 -1.0854e+07) (-13.7308 -13.7308 -1.07878e+07) (-12.9481 -12.9481 -1.07383e+07) (-11.2215 -11.2215 -1.0706e+07) (-8.02133 -8.02133 -1.06916e+07) (-4.00534 -4.00534 -1.0696e+07) (6.12102 6.12102 -1.07208e+07)
3300          (-0.331163 -0.331163 -1.29113e+07) (21.8938 21.8938 -1.11461e+07) (7.48926 7.48926 -1.10325e+07) (8.70699 8.70699 -1.09345e+07) (13.9127 13.9127 -1.08523e+07) (10.4472 10.4472 -1.07871e+07) (9.2742 9.2742 -1.07387e+07) (7.34013 7.34013 -1.07074e+07) (4.03087 4.03087 -1.0694e+07) (0.297328 0.297328 -1.06994e+07) (-9.27559 -9.27559 -1.07249e+07)
3350          (7.10335 7.10335 -1.29073e+07) (-11.0269 -11.0269 -1.11452e+07) (11.4333 11.4333 -1.10298e+07) (12.7431 12.7431 -1.0932e+07) (10.5254 10.5254 -1.08512e+07) (15.7305 15.7305 -1.07866e+07) (15.598 15.598 -1.07389e+07) (14.6558 14.6558 -1.07087e+07) (13.0421 13.0421 -1.06962e+07) (9.95609 9.95609 -1.07025e+07) (2.907 2.907 -1.07288e+07)
3400          (-3.52185 -3.52185 -1.29058e+07) (24.2323 24.2323 -1.11406e+07) (4.95752 4.95752 -1.10279e+07) (7.88864 7.88864 -1.09306e+07) (13.6245 13.6245 -1.08497e+07) (9.5477 9.5477 -1.07861e+07) (9.29599 9.29599 -1.07393e+07) (7.71066 7.71066 -1.07098e+07) (4.79584 4.79584 -1.06982e+07) (1.47939 1.47939 -1.07053e+07) (-7.42703 -7.42703 -1.07322e+07)
3450          (3.50848 3.50848 -1.29023e+07) (-11.8379 -11.8379 -1.11402e+07) (9.01592 9.01592 -1.10254e+07) (9.19594 9.19594 -1.09286e+07) (8.07754 8.07754 -1.08489e+07) (12.9094 12.9094 -1.07855e+07) (12.626 12.626 -1.07395e+07) (11.9681 11.9681 -1.07109e+07) (10.6929 10.6929 -1.07001e+07) (8.32413 8.32413 -1.07079e+07) (3.62175 3.62175 -1.07354e+07)
3500          (-3.71472 -3.71472 -1.29011e+07) (20.5596 20.5596 -1.11363e+07) (3.33866 3.33866 -1.10239e+07) (6.20791 6.20791 -1.09274e+07) (10.832 10.832 -1.08476e+07) (7.45212 7.45212 -1.07852e+07) (7.48427 7.48427 -1.07397e+07) (6.31263 6.31263 -1.07118e+07) (4.13581 4.13581 -1.07018e+07) (1.60129 1.60129 -1.07102e+07) (-5.30995 -5.30995 -1.07383e+07)
3550          (1.70424 1.70424 -1.28982e+07) (-10.4134 -10.4134 -1.11359e+07) (7.28797 7.28797 -1.10218e+07) (7.4185 7.4185 -1.09257e+07) (6.78357 6.78357 -1.08469e+07) (10.6908 10.6908 -1.07847e+07) (10.2511 10.2511 -1.074e+07) (9.4846 9.4846 -1.07127e+07) (8.21458 8.21458 -1.07033e+07) (6.20956 6.20956 -1.07124e+07) (2.6861 2.6861 -1.07409e+07)
3600          (-3.0667 -3.0667 -1.28971e+07) (17.1272 17.1272 -1.11327e+07) (2.55419 2.55419 -1.10205e+07) (4.9513 4.9513 -1.09247e+07) (8.69124 8.69124 -1.08458e+07) (5.94916 5.94916 -1.07844e+07) (6.06709 6.06709 -1.07402e+07) (5.20126 5.20126 -1.07135e+07) (3.52721 3.52721 -1.07047e+07) (1.52603 1.52603 -1.07144e+07) (-4.03072 -4.03072 -1.07433e+07)
3650          (0.786967 0.786967 -1.28946e+07) (-8.80864 -8.80864 -1.11323e+07) (6.29423 6.29423 -1.10188e+07) (6.57423 6.57423 -1.09233e+07) (6.14536 6.14536 -1.08452e+07) (9.27046 9.27046 -1.0784e+07) (8.67168 8.67168 -1.07403e+07) (7.74954 7.74954 -1.07142e+07) (6.43356 6.43356 -1.0706e+07) (4.6161 4.6161 -1.07162e+07) (1.63817 1.63817 -1.07455e+07)
3700          (-2.35729 -2.35729 -1.28938e+07) (14.374 14.374 -1.11296e+07) (2.06941 2.06941 -1.10177e+07) (4.03218 4.03218 -1.09224e+07) (7.11213 7.11213 -1.08443e+07) (4.86883 4.86883 -1.07838e+07) (5.03744 5.03744 -1.07405e+07) (4.39656 4.39656 -1.07149e+07) (3.076 3.076 -1.07072e+07) (1.45031 1.45031 -1.07178e+07) (-3.15857 -3.15857 -1.07475e+07)
3750          (8.928 8.928 -1.28917e+07) (1.29298 1.29298 -1.11295e+07) (23.0222 23.0222 -1.10161e+07) (26.1977 26.1977 -1.09212e+07) (27.2559 27.2559 -1.08437e+07) (30.3543 30.3543 -1.07833e+07) (27.1248 27.1248 -1.07405e+07) (22.3242 22.3242 -1.07154e+07) (15.4075 15.4075 -1.07082e+07) (7.10416 7.10416 -1.07192e+07) (-6.57661 -6.57661 -1.07493e+07)
3800          (-22.5782 -22.5782 -1.28911e+07) (-8.87756 -8.87756 -1.11268e+07) (-21.9431 -21.9431 -1.10156e+07) (-17.2272 -17.2272 -1.09204e+07) (-15.2621 -15.2621 -1.0843e+07) (-13.5412 -13.5412 -1.07832e+07) (-8.57951 -8.57951 -1.07408e+07) (-4.23945 -4.23945 -1.0716e+07) (1.89363 1.89363 -1.07092e+07) (8.34171 8.34171 -1.07207e+07) (15.4863 15.4863 -1.0751e+07)
3850          (14.3126 14.3126 -1.28894e+07) (15.98 15.98 -1.11271e+07) (31.8856 31.8856 -1.10139e+07) (30.4581 30.4581 -1.09197e+07) (29.4184 29.4184 -1.08426e+07) (28.0368 28.0368 -1.07829e+07) (21.8716 21.8716 -1.07409e+07) (14.7859 14.7859 -1.07165e+07) (4.96549 4.96549 -1.07101e+07) (-6.24539 -6.24539 -1.07219e+07) (-8.62069 -8.62069 -1.07525e+07)
3900          (8.11191 8.11191 -1.28885e+07) (-12.42 -12.42 -1.11262e+07) (3.6776 3.6776 -1.10133e+07) (-3.10214 -3.10214 -1.09192e+07) (-4.42655 -4.42655 -1.08422e+07) (-1.441 -1.441 -1.07827e+07) (-2.60329 -2.60329 -1.0741e+07) (-1.12152 -1.12152 -1.07169e+07) (-0.267316 -0.267316 -1.07107e+07) (0.726593 0.726593 -1.07228e+07) (-1.25602 -1.25602 -1.07536e+07)
3950          (-2.80501 -2.80501 -1.28876e+07) (2.72369 2.72369 -1.11245e+07) (0.185023 0.185023 -1.10127e+07) (4.48727 4.48727 -1.09183e+07) (3.79085 3.79085 -1.08417e+07) (4.64452 4.64452 -1.07826e+07) (5.27141 5.27141 -1.07411e+07) (4.62949 4.62949 -1.07174e+07) (4.22993 4.22993 -1.07116e+07) (3.27732 3.27732 -1.0724e+07) (1.02899 1.02899 -1.07551e+07)
4000          (14.0512 14.0512 -1.28868e+07) (17.0481 17.0481 -1.11238e+07) (15.5568 15.5568 -1.1012e+07) (18.2121 18.2121 -1.09177e+07) (16.0062 16.0062 -1.08413e+07) (14.8566 14.8566 -1.07824e+07) (12.6468 12.6468 -1.07411e+07) (9.12054 9.12054 -1.07176e+07) (5.21346 5.21346 -1.0712e+07) (-0.0307368 -0.0307368 -1.07247e+07) (-12.3667 -12.3667 -1.07559e+07)
4050          (6.288 6.288 -1.28858e+07) (7.19707 7.19707 -1.11229e+07) (9.13296 9.13296 -1.10111e+07) (7.71315 7.71315 -1.09172e+07) (8.88427 8.88427 -1.08409e+07) (7.21149 7.21149 -1.07823e+07) (5.81716 5.81716 -1.07413e+07) (4.09297 4.09297 -1.07181e+07) (1.34332 1.34332 -1.07129e+07) (-1.09122 -1.09122 -1.07257e+07) (-5.65213 -5.65213 -1.07572e+07)