# Probe 0 (0.0015 0.0015 0)
# Probe 1 (0.0015 0.0015 0.002)
# Probe 2 (0.0015 0.0015 0.004)
# Probe 3 (0.0015 0.0015 0.006)
# Probe 4 (0.0015 0.0015 0.008)
# Probe 5 (0.0015 0.0015 0.01)
# Probe 6 (0.0015 0.0015 0.012)
# Probe 7 (0.0015 0.0015 0.014)
# Probe 8 (0.0015 0.0015 0.016)
# Probe 9 (0.0015 0.0015 0.018)
# Probe 10 (0.0015 0.0015 0.02)
# Time        0             1             2             3             4             5             6             7             8             9             10           
50            (1.37317e-10 1.4205e-11 2.0324e-10) (1.48479e-10 7.78775e-11 4.17061e-10) (1.85443e-10 -1.73047e-11 1.16216e-09) (2.03144e-10 5.26283e-11 2.0823e-09) (1.03682e-10 -7.86181e-11 2.32093e-09) (5.08759e-10 -2.06187e-10 3.06998e-09) (4.47916e-10 -2.27318e-10 3.86955e-09) (9.18912e-11 -5.3889e-10 4.57125e-09) (2.63283e-10 -6.72896e-10 4.33875e-09) (2.3784e-10 -4.78384e-10 4.80746e-09) (2.83512e-10 -7.26577e-10 5.60026e-09)
100           (-6.45894e-11 5.7547e-11 -1.07312e-11) (-1.2913e-10 -1.68445e-10 3.43947e-10) (-1.25189e-10 -1.27307e-10 1.27111e-09) (1.22625e-10 -8.33395e-11 1.31742e-09) (1.01306e-10 -5.13622e-10 1.5294e-09) (1.76222e-10 -5.29358e-10 2.32885e-09) (5.66943e-10 -2.28989e-10 2.50298e-09) (5.87913e-10 -5.58529e-10 3.93986e-09) (6.68654e-10 -8.29323e-10 3.3947e-09) (6.6616e-10 -9.13348e-10 4.01042e-09) (4.85872e-10 -8.49171e-10 4.32722e-09)
150           (1.16474e-10 6.14869e-11 -4.15747e-11) (1.06109e-10 -5.70224e-11 7.87408e-10) (4.17289e-11 -2.80783e-11 1.46204e-09) (9.0877e-11 -1.90453e-10 1.31722e-09) (4.7168e-10 -4.31639e-10 2.93587e-09) (4.27244e-10 -4.10219e-10 3.29791e-09) (4.31061e-10 -7.23179e-10 4.01389e-09) (6.33787e-10 -7.40794e-10 4.47425e-09) (8.37392e-10 -1.27506e-09 6.12949e-09) (1.18393e-09 -1.32203e-09 6.37461e-09) (1.30614e-09 -1.21545e-09 6.85404e-09)
200           (1.74595e-10 -1.13781e-10 -2.26692e-10) (-7.76277e-12 -3.15171e-10 5.74402e-10) (1.31565e-10 -3.61673e-10 1.39286e-09) (2.01954e-10 -2.62556e-10 1.62564e-09) (1.96189e-10 -4.58628e-10 2.01906e-09) (7.04416e-10 -6.64449e-10 3.42705e-09) (8.74974e-10 -9.0105e-10 3.38274e-09) (1.12617e-09 -8.2967e-10 3.51086e-09) (1.4129e-09 -1.28167e-09 4.67059e-09) (1.48742e-09 -1.26824e-09 4.47894e-09) (1.39603e-09 -1.35433e-09 4.66299e-09)
250           (1.14811e-10 -3.45551e-11 -2.74566e-10) (1.65903e-10 -6.0077e-11 7.2129e-10) (3.22497e-10 -8.21601e-11 1.84102e-09) (2.1331e-10 -2.79188e-10 2.40303e-09) (6.49827e-10 -5.66894e-10 2.62679e-09) (7.4757e-10 -9.40337e-10 3.27391e-09) (9.49839e-10 -8.01591e-10 4.1666e-09) (1.16137e-09 -1.21395e-09 4.40953e-09) (1.45564e-09 -1.18355e-09 5.40275e-09) (1.79873e-09 -1.50513e-09 5.35317e-09) (1.46193e-09 -1.61598e-09 6.13745e-09)
300           (-1.5383e-11 9.77136e-11 -3.62538e-11) (1.21136e-10 -6.97251e-11 -6.26289e-11) (1.27929e-10 -1.61557e-10 -2.9844e-11) (6.1515e-10 -4.78001e-10 -4.17635e-11) (6.15914e-10 -5.30378e-10 -2.37068e-10) (7.85961e-10 -9.57133e-10 9.02738e-10) (9.99494e-10 -1.05566e-09 8.69387e-10) (1.82188e-09 -1.45031e-09 1.22812e-09) (1.62035e-09 -1.87148e-09 1.60625e-09) (1.85681e-09 -1.61547e-09 2.41547e-09) (2.02833e-09 -1.90348e-09 2.74457e-09)
350           (-8.87961e-11 -8.01658e-11 1.19853e-11) (1.66739e-10 -3.01385e-10 6.7382e-10) (3.94481e-10 -1.76197e-10 8.55017e-10) (7.22081e-10 -2.88529e-10 1.1323e-09) (8.53264e-10 -7.63649e-10 1.9265e-09) (8.13307e-10 -1.22263e-09 2.471e-09) (1.19003e-09 -1.36386e-09 3.6727e-09) (1.74485e-09 -1.73817e-09 3.96134e-09) (1.96303e-09 -1.94681e-09 4.91894e-09) (2.14919e-09 -1.91816e-09 5.67499e-09) (2.01222e-09 -2.27268e-09 6.43269e-09)
400           (1.66531e-10 -3.60391e-12 -3.23857e-10) (-4.70489e-11 -1.36343e-10 9.90357e-10) (4.65052e-10 -5.0165e-10 6.20745e-10) (5.43253e-10 -8.40567e-10 1.45719e-09) (1.01463e-09 -1.17726e-09 1.58402e-09) (1.25315e-09 -1.34224e-09 2.12211e-09) (1.75077e-09 -1.72019e-09 2.68361e-09) (1.60091e-09 -1.75131e-09 3.70238e-09) (2.04741e-09 -2.03255e-09 3.4579e-09) (2.24024e-09 -2.53643e-09 5.02468e-09) (2.23995e-09 -2.59499e-09 5.30477e-09)
450           (-9.56399e-12 -7.6629e-11 3.06646e-10) (2.46409e-10 -4.84709e-11 8.21542e-10) (4.4151e-10 -6.26948e-10 9.1656e-10) (7.3845e-10 -7.98294e-10 1.93825e-09) (1.21463e-09 -1.23414e-09 3.54198e-09) (1.2813e-09 -1.42534e-09 3.96777e-09) (1.71359e-09 -1.77844e-09 4.21862e-09) (1.88755e-09 -2.07309e-09 4.16715e-09) (2.29658e-09 -2.13992e-09 4.88758e-09) (2.53038e-09 -2.41691e-09 5.78401e-09) (2.26711e-09 -2.4721e-09 6.74419e-09)
500           (-2.37824e-11 -1.52005e-10 -8.95776e-11) (3.41265e-10 -2.24515e-10 -1.75354e-10) (7.84139e-10 -4.17746e-10 6.71244e-10) (7.3619e-10 -1.03677e-09 6.51466e-10) (9.50598e-10 -1.13896e-09 1.82145e-09) (1.33453e-09 -1.50159e-09 2.21559e-09) (1.90472e-09 -1.71814e-09 2.19899e-09) (2.39742e-09 -2.11831e-09 2.47189e-09) (2.43976e-09 -2.43452e-09 2.46034e-09) (2.6098e-09 -2.71211e-09 3.32444e-09) (2.62815e-09 -2.94405e-09 3.76602e-09)
550           (-6.24683e-11 -6.80669e-11 2.27311e-10) (3.65934e-10 -2.48657e-10 9.0888e-10) (8.05698e-10 -4.26335e-10 4.61918e-10) (8.85203e-10 -8.34959e-10 4.49524e-10) (1.54886e-09 -1.57174e-09 1.43743e-09) (1.58105e-09 -1.59774e-09 9.37526e-10) (1.796e-09 -1.84327e-09 1.20217e-09) (2.34565e-09 -2.0025e-09 1.11948e-09) (2.49994e-09 -2.5609e-09 1.04955e-09) (2.83816e-09 -3.03845e-09 1.70516e-09) (2.95016e-09 -3.05213e-09 3.4022e-09)
600           (1.52497e-10 -1.5322e-10 3.42195e-10) (1.29764e-10 -2.97016e-10 -2.46104e-10) (5.32926e-10 -8.04824e-10 6.09288e-10) (1.05223e-09 -9.40249e-10 1.36477e-09) (1.55536e-09 -1.43393e-09 1.32991e-09) (1.62966e-09 -1.68257e-09 9.67753e-10) (2.07318e-09 -2.03276e-09 1.40616e-09) (2.58588e-09 -2.16618e-09 9.60714e-10) (2.95633e-09 -2.62517e-09 8.78908e-10) (2.99817e-09 -3.26792e-09 1.54407e-09) (3.56777e-09 -3.06621e-09 2.52587e-09)
650           (-2.46193e-11 -9.92102e-11 -5.14414e-11) (3.21233e-10 -2.35572e-10 1.61079e-10) (7.18373e-10 -7.86132e-10 1.35568e-09) (9.24837e-10 -1.09359e-09 1.35158e-09) (1.40536e-09 -1.63664e-09 1.70371e-09) (2.04519e-09 -2.03627e-09 1.78817e-09) (2.33506e-09 -2.10722e-09 2.6204e-09) (2.82867e-09 -2.66635e-09 3.96346e-09) (3.03129e-09 -3.19903e-09 3.36531e-09) (3.36e-09 -3.44107e-09 4.9752e-09) (3.22302e-09 -3.09942e-09 5.76261e-09)
700           (1.57598e-10 -4.13806e-11 -5.1647e-11) (5.77742e-10 -2.36623e-10 -2.27634e-10) (8.56777e-10 -8.63426e-10 1.01561e-09) (1.3397e-09 -1.15497e-09 1.46933e-09) (1.33818e-09 -1.43681e-09 2.36629e-09) (2.0092e-09 -1.98555e-09 2.19034e-09) (2.20322e-09 -2.42278e-09 3.82154e-09) (2.57446e-09 -2.75736e-09 4.5171e-09) (3.09075e-09 -3.1159e-09 3.97468e-09) (3.52882e-09 -3.50602e-09 5.0132e-09) (3.59627e-09 -3.54506e-09 5.97648e-09)
750           (3.10364e-11 -1.32527e-10 1.0824e-10) (1.18713e-10 -6.12716e-10 7.89416e-10) (7.88787e-10 -8.4215e-10 1.12214e-09) (1.32983e-09 -1.12138e-09 1.40484e-09) (1.74571e-09 -1.28814e-09 1.64989e-09) (1.98838e-09 -2.17475e-09 2.40868e-09) (2.51522e-09 -2.28631e-09 3.01114e-09) (3.23143e-09 -2.6003e-09 3.10955e-09) (3.51459e-09 -3.07337e-09 4.05161e-09) (3.46289e-09 -3.55941e-09 4.90756e-09) (3.88368e-09 -3.70038e-09 4.56561e-09)
800           (4.46648e-11 -1.32747e-11 -3.03267e-11) (6.00958e-10 -4.11536e-10 1.08466e-09) (7.64508e-10 -1.19885e-09 4.19217e-10) (1.38914e-09 -1.5309e-09 1.42345e-09) (1.77645e-09 -1.67872e-09 1.2852e-09) (2.32601e-09 -2.32454e-09 2.63078e-09) (2.75984e-09 -2.60393e-09 3.7681e-09) (2.85251e-09 -2.94192e-09 3.99611e-09) (3.64088e-09 -3.36924e-09 3.91348e-09) (3.81111e-09 -3.47258e-09 5.12529e-09) (3.39e-09 -3.52359e-09 5.1322e-09)
850           (-1.05184e-10 1.6444e-11 -2.66362e-11) (5.18951e-10 -3.34974e-10 5.50082e-10) (9.5156e-10 -1.18712e-09 2.16188e-09) (1.42495e-09 -1.32196e-09 2.02115e-09) (2.04141e-09 -1.87722e-09 2.97178e-09) (2.29365e-09 -2.319e-09 3.36215e-09) (2.59913e-09 -2.78865e-09 3.52801e-09) (3.10321e-09 -3.1656e-09 2.96209e-09) (3.63961e-09 -3.25036e-09 4.16059e-09) (3.78283e-09 -3.81505e-09 5.28776e-09) (3.64106e-09 -3.86988e-09 6.36566e-09)
900           (1.56163e-10 7.34067e-11 2.93055e-11) (2.75854e-10 -5.43432e-10 5.94513e-10) (7.68681e-10 -1.16387e-09 1.92997e-09) (1.4947e-09 -1.44401e-09 2.65099e-09) (1.83352e-09 -1.64535e-09 3.60268e-09) (2.31085e-09 -2.47347e-09 4.00128e-09) (2.96262e-09 -2.75433e-09 3.70287e-09) (3.27313e-09 -3.07669e-09 4.58753e-09) (3.59071e-09 -3.51278e-09 5.82494e-09) (3.7995e-09 -3.69707e-09 6.25133e-09) (4.02743e-09 -3.81059e-09 6.82342e-09)
950           (1.11117e-10 -7.77759e-11 -1.41214e-10) (5.34207e-10 -6.01427e-10 7.43447e-10) (8.74e-10 -8.60971e-10 8.52289e-10) (1.30929e-09 -1.43105e-09 1.62962e-09) (1.72443e-09 -1.91498e-09 2.68612e-09) (2.54699e-09 -2.41369e-09 2.85933e-09) (3.03215e-09 -2.70285e-09 3.81381e-09) (3.26482e-09 -3.4944e-09 3.48185e-09) (3.73871e-09 -3.70147e-09 4.66338e-09) (3.93536e-09 -4.13198e-09 6.10166e-09) (4.06465e-09 -4.16743e-09 7.14865e-09)
1000          (1.0926e-10 2.10932e-11 -1.27704e-11) (3.16253e-10 -3.06886e-10 6.56503e-10) (1.02429e-09 -1.06609e-09 5.49333e-10) (1.38094e-09 -1.39605e-09 3.5295e-10) (2.02445e-09 -2.07581e-09 1.63278e-09) (2.54514e-09 -2.48499e-09 2.04997e-09) (3.04463e-09 -2.68174e-09 1.96244e-09) (3.39381e-09 -3.09539e-09 2.63626e-09) (3.83806e-09 -3.53556e-09 3.71177e-09) (3.97816e-09 -4.0628e-09 3.93643e-09) (3.79912e-09 -4.28518e-09 4.82203e-09)
1050          (7.43194e-11 -6.40333e-11 -8.08587e-11) (4.71284e-10 -7.14149e-11 -4.5889e-10) (7.71278e-10 -8.27368e-10 1.56173e-10) (1.47241e-09 -1.30878e-09 1.10405e-09) (1.81867e-09 -2.01974e-09 1.32457e-09) (2.46715e-09 -2.38731e-09 2.10186e-09) (2.90658e-09 -2.83553e-09 2.09252e-09) (3.64247e-09 -3.32567e-09 2.25658e-09) (3.91515e-09 -3.75638e-09 3.12462e-09) (4.13434e-09 -3.96535e-09 3.45319e-09) (4.43346e-09 -4.22047e-09 4.56071e-09)
1100          (-2.85195e-11 -1.62367e-10 -3.43716e-10) (2.50805e-10 -6.53338e-10 2.26374e-10) (1.05702e-09 -1.18177e-09 3.08865e-10) (1.55534e-09 -1.31101e-09 1.10829e-09) (2.12601e-09 -2.26081e-09 2.05899e-09) (2.59848e-09 -2.57373e-09 2.20245e-09) (3.07747e-09 -3.02604e-09 2.57431e-09) (3.63311e-09 -3.51612e-09 3.38993e-09) (3.69044e-09 -3.93282e-09 3.88221e-09) (3.95553e-09 -4.37451e-09 4.11664e-09) (4.07108e-09 -4.31434e-09 3.26794e-09)
1150          (9.3739e-11 -9.80993e-11 3.03103e-11) (4.26684e-10 -6.43228e-10 2.3789e-10) (1.01493e-09 -1.28861e-09 5.4203e-10) (1.5687e-09 -1.80827e-09 6.8954e-10) (2.12736e-09 -2.07398e-09 1.30707e-09) (2.47235e-09 -2.67265e-09 2.08398e-09) (3.09447e-09 -3.08605e-09 3.05936e-09) (3.92031e-09 -3.72919e-09 3.3357e-09) (4.10893e-09 -3.94677e-09 3.75835e-09) (4.10881e-09 -4.08129e-09 4.60166e-09) (4.36947e-09 -4.29195e-09 4.99913e-09)
1200          (-1.79206e-11 -8.86245e-11 2.16303e-10) (4.48027e-10 -5.37986e-10 3.31204e-10) (1.17079e-09 -8.74954e-10 5.41002e-10) (1.48713e-09 -1.1724e-09 8.6332e-10) (2.11348e-09 -1.95795e-09 9.52343e-10) (2.71691e-09 -2.84907e-09 1.17815e-09) (2.97777e-09 -3.19223e-09 1.45945e-09) (3.66302e-09 -3.69088e-09 2.6697e-09) (4.12438e-09 -3.88322e-09 3.46738e-09) (4.47076e-09 -4.10624e-09 3.71355e-09) (4.42929e-09 -4.53557e-09 4.74415e-09)
1250          (8.30358e-11 -6.43193e-11 1.10833e-11) (8.31031e-10 -5.82833e-10 1.75222e-09) (1.10706e-09 -1.21702e-09 2.18506e-09) (1.40512e-09 -1.67532e-09 2.48286e-09) (2.0207e-09 -2.27876e-09 3.22454e-09) (2.58088e-09 -2.79623e-09 2.98349e-09) (3.27213e-09 -3.218e-09 3.19803e-09) (3.54069e-09 -3.80061e-09 4.33703e-09) (4.15671e-09 -4.28554e-09 4.98728e-09) (4.1656e-09 -4.37703e-09 5.52623e-09) (4.80191e-09 -4.79074e-09 6.80676e-09)
1300          (-1.14365e-11 -1.01314e-10 3.52303e-10) (3.97878e-10 -4.87415e-10 5.61003e-10) (1.09421e-09 -1.14819e-09 1.04988e-09) (1.71534e-09 -1.59515e-09 1.87806e-09) (2.42492e-09 -2.32003e-09 9.94066e-10) (2.93907e-09 -2.63496e-09 1.97932e-09) (3.31486e-09 -3.2175e-09 2.69253e-09) (3.82239e-09 -4.02243e-09 3.01505e-09) (4.10455e-09 -4.30771e-09 3.77974e-09) (4.51747e-09 -4.30105e-09 4.78664e-09) (4.15572e-09 -4.7188e-09 5.27655e-09)
1350          (5.38224e-13 9.75035e-11 1.22719e-10) (4.06147e-10 -6.11674e-10 8.07425e-10) (1.11884e-09 -1.10946e-09 2.2424e-09) (1.67393e-09 -1.64323e-09 2.75769e-09) (2.3628e-09 -2.37186e-09 2.69141e-09) (2.9353e-09 -2.99936e-09 3.46316e-09) (3.24635e-09 -3.40217e-09 3.92926e-09) (3.78027e-09 -3.79226e-09 4.65982e-09) (4.35797e-09 -4.2557e-09 5.52318e-09) (4.62288e-09 -4.63549e-09 5.61968e-09) (5.02468e-09 -4.49378e-09 6.5124e-09)
1400          (-1.77908e-10 5.83343e-11 2.04739e-10) (5.94847e-10 -2.79558e-10 9.50769e-10) (1.06912e-09 -9.9732e-10 1.15035e-09) (1.87298e-09 -1.75012e-09 8.65352e-10) (2.32584e-09 -2.1394e-09 1.51764e-09) (2.84967e-09 -2.87643e-09 2.23925e-09) (3.38872e-09 -3.28343e-09 2.54633e-09) (3.79208e-09 -3.86969e-09 2.67315e-09) (4.39794e-09 -4.20362e-09 3.14755e-09) (4.50401e-09 -4.74661e-09 4.06612e-09) (4.54558e-09 -4.72695e-09 3.71361e-09)
1450          (1.85972e-10 1.64122e-11 -4.63321e-10) (6.02702e-10 -7.34388e-10 6.76257e-10) (1.33187e-09 -9.64078e-10 1.42079e-09) (1.74428e-09 -1.59655e-09 2.51087e-09) (2.12601e-09 -2.26905e-09 2.65264e-09) (2.75871e-09 -2.67367e-09 3.13675e-09) (3.14746e-09 -3.3926e-09 4.03472e-09) (3.91334e-09 -3.97225e-09 3.33661e-09) (4.34472e-09 -4.5254e-09 5.22607e-09) (4.3538e-09 -4.55659e-09 6.27537e-09) (4.92574e-09 -4.39729e-09 7.06891e-09)
1500          (-6.36245e-11 -5.58231e-12 1.76278e-11) (5.80473e-10 -4.4835e-10 1.32219e-09) (1.10122e-09 -9.67826e-10 1.87058e-09) (1.54969e-09 -1.76045e-09 2.32524e-09) (2.18586e-09 -2.41712e-09 2.4401e-09) (2.88984e-09 -2.87166e-09 3.22719e-09) (3.68748e-09 -3.38821e-09 3.84633e-09) (3.7923e-09 -3.89316e-09 3.87658e-09) (4.21812e-09 -4.59763e-09 4.71563e-09) (4.76092e-09 -4.74336e-09 5.75353e-09) (5.38048e-09 -5.13868e-09 6.81655e-09)
1550          (-6.39122e-11 -7.88477e-11 -1.91472e-10) (4.49447e-10 -5.55065e-10 4.32921e-10) (1.0604e-09 -9.07442e-10 3.96801e-10) (1.61217e-09 -1.82058e-09 5.51846e-10) (2.27689e-09 -2.62597e-09 6.19408e-10) (3.00848e-09 -2.94178e-09 1.16793e-09) (3.58711e-09 -3.49129e-09 1.91313e-09) (4.24408e-09 -3.68618e-09 2.69268e-09) (4.4058e-09 -4.58006e-09 3.73918e-09) (4.90254e-09 -4.93501e-09 3.84808e-09) (4.60316e-09 -4.90895e-09 4.21457e-09)
1600          (2.00965e-10 -2.34968e-10 -1.05149e-10) (7.58403e-10 -5.41117e-10 1.07233e-10) (1.16426e-09 -1.03867e-09 3.07701e-10) (1.6737e-09 -1.74719e-09 8.78941e-10) (2.35085e-09 -2.31615e-09 1.26901e-09) (2.82126e-09 -3.0205e-09 1.62197e-09) (3.27703e-09 -3.35198e-09 2.52226e-09) (3.88574e-09 -3.72519e-09 2.94928e-09) (4.14432e-09 -4.32988e-09 3.14825e-09) (4.53676e-09 -4.74249e-09 4.35807e-09) (4.71651e-09 -5.05323e-09 5.26936e-09)
1650          (-6.67349e-11 -8.17622e-11 2.27075e-10) (4.16139e-10 -6.90159e-10 4.63345e-10) (1.20107e-09 -1.13364e-09 9.87524e-10) (1.91807e-09 -1.64619e-09 1.18833e-09) (2.55051e-09 -2.1553e-09 1.64196e-09) (2.92102e-09 -3.19385e-09 1.29374e-09) (3.45824e-09 -3.41811e-09 1.88189e-09) (4.19916e-09 -4.01266e-09 1.47554e-09) (4.83963e-09 -4.61772e-09 2.25749e-09) (4.7155e-09 -4.739e-09 2.58555e-09) (4.70492e-09 -4.99863e-09 3.16909e-09)
1700          (-1.46656e-11 -5.56804e-13 -1.38842e-10) (4.88351e-10 -7.37473e-10 6.52322e-10) (9.68437e-10 -1.33814e-09 1.06267e-09) (1.54637e-09 -1.73429e-09 9.61524e-10) (2.26827e-09 -2.61114e-09 1.69468e-09) (2.98445e-09 -2.80209e-09 1.65202e-09) (3.57465e-09 -3.66181e-09 1.69248e-09) (3.89864e-09 -3.97565e-09 2.9775e-09) (4.49234e-09 -4.42801e-09 3.73598e-09) (4.77725e-09 -4.97009e-09 4.14857e-09) (4.67467e-09 -5.14275e-09 5.59721e-09)
1750          (3.67377e-11 -1.24017e-10 5.86126e-11) (7.2254e-10 -6.08316e-10 5.05989e-10) (1.29067e-09 -1.23407e-09 1.69614e-09) (1.61247e-09 -1.76151e-09 2.0208e-09) (2.4665e-09 -2.22365e-09 2.19111e-09) (3.02564e-09 -2.7289e-09 2.59364e-09) (3.72293e-09 -3.58937e-09 3.24974e-09) (4.14249e-09 -4.08452e-09 3.8289e-09) (4.42831e-09 -4.4443e-09 4.16646e-09) (5.14276e-09 -5.09619e-09 4.65729e-09) (4.98454e-09 -5.01962e-09 5.06103e-09)
1800          (1.64727e-10 -1.39326e-10 -7.61323e-11) (9.07573e-10 -5.23066e-10 3.42625e-10) (1.48133e-09 -1.32829e-09 7.44785e-10) (1.77863e-09 -1.92557e-09 2.27438e-09) (2.60733e-09 -2.4835e-09 2.5584e-09) (3.13908e-09 -3.18023e-09 3.06469e-09) (3.8067e-09 -3.95543e-09 4.10937e-09) (4.00491e-09 -4.19955e-09 4.84288e-09) (4.74897e-09 -4.61789e-09 5.3423e-09) (4.95345e-09 -4.65562e-09 4.93561e-09) (4.9828e-09 -4.99713e-09 4.78661e-09)
1850          (7.45512e-11 -5.07307e-11 -2.15347e-10) (5.95257e-10 -7.02716e-10 3.8716e-10) (1.42492e-09 -1.38442e-09 1.30372e-09) (1.90119e-09 -1.80617e-09 1.44436e-09) (2.35358e-09 -2.53425e-09 1.31474e-09) (2.79759e-09 -2.82088e-09 1.75498e-09) (3.65917e-09 -3.61294e-09 3.12166e-09) (4.19317e-09 -4.3041e-09 2.51164e-09) (4.71026e-09 -4.73109e-09 4.16399e-09) (4.88026e-09 -5.09185e-09 4.1439e-09) (5.01665e-09 -4.91014e-09 5.05849e-09)
1900          (1.24916e-10 7.57618e-11 2.24495e-10) (7.3198e-10 -5.39215e-10 4.47696e-10) (1.16938e-09 -1.12597e-09 1.05677e-09) (1.70038e-09 -1.7062e-09 1.67893e-09) (2.22831e-09 -2.65485e-09 1.66569e-09) (3.12784e-09 -3.04717e-09 2.65606e-09) (3.56048e-09 -3.66771e-09 3.07079e-09) (4.34046e-09 -4.1422e-09 3.54427e-09) (4.57178e-09 -4.76242e-09 3.85243e-09) (5.29544e-09 -4.92612e-09 3.59045e-09) (4.86553e-09 -4.91959e-09 4.18576e-09)
1950          (-2.4677e-11 -3.90728e-11 3.73799e-11) (4.90179e-10 -7.37783e-10 7.85543e-10) (1.36216e-09 -1.58189e-09 1.24724e-09) (2.19655e-09 -2.14755e-09 2.06356e-09) (2.59549e-09 -2.76423e-09 2.8133e-09) (2.98745e-09 -2.9918e-09 3.34141e-09) (3.69686e-09 -3.73262e-09 4.34472e-09) (4.07172e-09 -4.03824e-09 5.25639e-09) (4.54373e-09 -4.93782e-09 5.63679e-09) (4.84974e-09 -5.07014e-09 6.09816e-09) (4.68267e-09 -5.43406e-09 7.44176e-09)
2000          (1.82548e-10 1.08778e-10 -1.11922e-10) (7.38462e-10 -4.47617e-10 5.40175e-10) (1.36495e-09 -1.26582e-09 1.89212e-09) (1.87523e-09 -1.73313e-09 2.32369e-09) (2.41702e-09 -2.59555e-09 4.41352e-09) (3.15785e-09 -3.07382e-09 4.9712e-09) (3.88784e-09 -3.74118e-09 6.72324e-09) (4.22229e-09 -4.28781e-09 6.64341e-09) (4.80347e-09 -4.54824e-09 6.09053e-09) (5.30072e-09 -5.06239e-09 6.94954e-09) (5.2223e-09 -5.00104e-09 7.7012e-09)
2050          (-2.57525e-12 2.66327e-10 -1.23154e-10) (6.24212e-10 -2.58115e-10 1.22346e-09) (9.50152e-10 -1.28917e-09 1.34969e-09) (1.72618e-09 -1.84974e-09 2.31954e-09) (2.65087e-09 -2.54429e-09 3.45224e-09) (3.48258e-09 -3.28693e-09 2.85165e-09) (3.61758e-09 -3.54472e-09 3.24508e-09) (4.20741e-09 -4.11627e-09 3.28703e-09) (4.9855e-09 -4.73272e-09 3.95493e-09) (4.91259e-09 -5.08532e-09 4.52653e-09) (5.07585e-09 -5.36254e-09 5.27618e-09)
2100          (1.31672e-10 -5.76427e-11 -5.26931e-11) (5.63379e-10 -6.20075e-10 5.65595e-10) (1.07593e-09 -1.23703e-09 7.4051e-10) (1.84473e-09 -1.92337e-09 1.47154e-09) (2.6312e-09 -2.66611e-09 1.83695e-09) (3.16267e-09 -3.12554e-09 2.41109e-09) (3.75157e-09 -3.58591e-09 2.71429e-09) (4.23836e-09 -4.30676e-09 2.81048e-09) (4.72629e-09 -4.56592e-09 3.21185e-09) (5.06795e-09 -5.06793e-09 3.38992e-09) (4.79598e-09 -5.06302e-09 3.67215e-09)
2150          (3.15762e-10 6.53177e-12 -2.53002e-10) (6.15357e-10 -4.2423e-10 2.26504e-10) (1.56361e-09 -1.16124e-09 1.22622e-09) (1.88982e-09 -1.77037e-09 2.18284e-09) (2.46251e-09 -2.626e-09 2.29731e-09) (3.23231e-09 -3.12239e-09 2.71115e-09) (3.59093e-09 -3.74134e-09 3.85898e-09) (4.24684e-09 -4.38187e-09 3.67299e-09) (4.84484e-09 -5.00103e-09 4.38107e-09) (5.20776e-09 -4.98582e-09 5.29187e-09) (5.03869e-09 -5.16991e-09 6.81954e-09)
2200          (1.35197e-10 -1.05143e-10 1.38738e-13) (7.13318e-10 -5.75951e-10 9.51862e-10) (1.37202e-09 -1.26218e-09 1.33771e-09) (1.82229e-09 -2.0798e-09 1.99135e-09) (2.39594e-09 -2.53187e-09 2.45402e-09) (3.24802e-09 -3.082e-09 3.12461e-09) (3.50037e-09 -3.66753e-09 3.78221e-09) (4.41929e-09 -4.38247e-09 3.9006e-09) (4.90693e-09 -4.89088e-09 3.03596e-09) (4.94737e-09 -4.91877e-09 3.63111e-09) (5.1164e-09 -4.98896e-09 5.16091e-09)
2250          (4.05623e-11 -2.14306e-10 7.63779e-11) (5.54026e-10 -7.11949e-10 5.33649e-10) (1.3282e-09 -1.30749e-09 1.09075e-09) (2.00844e-09 -2.10043e-09 1.3709e-09) (2.45636e-09 -2.38985e-09 1.93964e-09) (3.30978e-09 -3.27246e-09 2.66053e-09) (3.72179e-09 -3.78545e-09 3.69329e-09) (4.50156e-09 -4.2714e-09 4.04499e-09) (4.8311e-09 -4.6819e-09 4.01666e-09) (5.28621e-09 -5.21257e-09 4.63154e-09) (4.98525e-09 -5.14234e-09 4.708e-09)
2300          (1.07688e-10 1.83831e-12 -2.29527e-10) (7.42904e-10 -8.49171e-10 8.36419e-11) (1.45101e-09 -1.2766e-09 4.38767e-10) (2.03489e-09 -2.15092e-09 1.19353e-09) (2.75509e-09 -2.57964e-09 1.53692e-09) (3.13272e-09 -3.44882e-09 2.08158e-09) (3.95618e-09 -3.92278e-09 2.55593e-09) (4.47958e-09 -4.10863e-09 3.70285e-09) (4.66718e-09 -4.65049e-09 3.16807e-09) (5.07957e-09 -5.22915e-09 3.97824e-09) (5.263e-09 -5.21616e-09 4.41503e-09)
2350          (-4.797e-11 -1.7933e-10 -1.3903e-10) (5.70665e-10 -7.15574e-10 5.08676e-10) (1.33773e-09 -1.42267e-09 1.11069e-09) (1.87264e-09 -2.18712e-09 1.61837e-09) (2.58862e-09 -2.62421e-09 2.48994e-09) (3.36679e-09 -3.54462e-09 3.30428e-09) (3.8372e-09 -3.94281e-09 4.41134e-09) (4.41637e-09 -4.4706e-09 3.60352e-09) (4.89904e-09 -4.62955e-09 4.14686e-09) (5.16003e-09 -5.14022e-09 4.50089e-09) (5.14959e-09 -5.25388e-09 5.08813e-09)
2400          (-7.16286e-11 -4.23762e-11 -1.60804e-10) (6.42885e-10 -9.23462e-10 6.45772e-10) (1.15062e-09 -1.51164e-09 1.05808e-09) (1.96016e-09 -1.81014e-09 2.32435e-09) (2.61251e-09 -2.60959e-09 3.2892e-09) (3.3556e-09 -3.31443e-09 4.06274e-09) (4.00652e-09 -3.62898e-09 4.86321e-09) (4.63981e-09 -4.24005e-09 5.24253e-09) (5.04895e-09 -4.90734e-09 5.4211e-09) (5.18828e-09 -5.00472e-09 6.02426e-09) (5.27077e-09 -5.20435e-09 5.7904e-09)
2450          (1.09119e-11 -6.81662e-11 -1.36863e-11) (5.57929e-10 -5.5459e-10 5.4144e-10) (1.38061e-09 -1.21663e-09 1.18342e-09) (2.0274e-09 -1.92649e-09 2.38942e-09) (2.88479e-09 -2.52813e-09 2.69502e-09) (3.42971e-09 -3.06355e-09 2.73418e-09) (3.98051e-09 -3.76467e-09 3.30381e-09) (4.34129e-09 -4.10742e-09 3.70753e-09) (4.60165e-09 -5.09341e-09 4.30582e-09) (5.00305e-09 -5.03457e-09 4.76604e-09) (5.10293e-09 -5.39846e-09 5.04142e-09)
2500          (-1.96309e-11 -8.58033e-11 2.12485e-10) (7.12496e-10 -6.48133e-10 1.00961e-09) (1.0546e-09 -1.20751e-09 7.94282e-10) (1.92735e-09 -1.92488e-09 1.53062e-09) (2.57614e-09 -2.43455e-09 3.08498e-09) (3.35312e-09 -3.50849e-09 3.05335e-09) (3.74581e-09 -3.95033e-09 3.97117e-09) (4.44514e-09 -4.29817e-09 3.40246e-09) (5.10871e-09 -4.82041e-09 3.66846e-09) (5.26316e-09 -5.32418e-09 4.55555e-09) (5.32946e-09 -5.09313e-09 6.27912e-09)
2550          (5.04642e-11 1.12996e-10 -1.83232e-11) (4.37772e-10 -6.42433e-10 7.97207e-10) (1.28249e-09 -1.21669e-09 5.03882e-10) (1.74051e-09 -1.67579e-09 1.91554e-09) (2.87407e-09 -2.37945e-09 1.89125e-09) (3.41474e-09 -2.96078e-09 2.37381e-09) (3.70391e-09 -3.75339e-09 3.43405e-09) (4.32377e-09 -4.63245e-09 3.20469e-09) (4.73628e-09 -4.98382e-09 3.27091e-09) (5.4735e-09 -5.3566e-09 4.39332e-09) (5.39086e-09 -5.32981e-09 4.77331e-09)
2600          (1.66001e-10 -6.58606e-11 7.97414e-11) (5.97077e-10 -4.78971e-10 3.32665e-10) (1.40611e-09 -1.38239e-09 7.23063e-10) (1.94527e-09 -1.84177e-09 1.10518e-09) (2.39642e-09 -2.65529e-09 1.11083e-09) (3.06857e-09 -3.30295e-09 1.70616e-09) (3.74117e-09 -3.90897e-09 1.85635e-09) (4.23721e-09 -4.37283e-09 3.45542e-09) (4.70997e-09 -4.7871e-09 4.03759e-09) (5.00998e-09 -5.07885e-09 4.12695e-09) (5.13775e-09 -5.31114e-09 3.71384e-09)
2650          (1.58255e-10 -3.08593e-10 -1.45952e-11) (4.41592e-10 -7.76329e-10 1.10701e-09) (1.37985e-09 -1.30545e-09 1.29161e-09) (1.94004e-09 -1.89864e-09 1.65352e-09) (2.60273e-09 -2.84111e-09 1.81702e-09) (3.42525e-09 -3.37921e-09 2.64065e-09) (3.86122e-09 -3.97389e-09 2.36241e-09) (4.7311e-09 -4.13767e-09 3.54208e-09) (4.75371e-09 -4.88667e-09 4.63763e-09) (5.28688e-09 -5.2371e-09 5.44617e-09) (5.20955e-09 -5.0948e-09 6.90667e-09)
2700          (6.48519e-11 -2.79732e-10 1.3425e-10) (6.99144e-10 -7.07686e-10 2.01964e-10) (1.38726e-09 -1.44794e-09 3.16172e-10) (2.16817e-09 -1.97022e-09 8.38352e-10) (2.50753e-09 -2.54755e-09 2.46801e-09) (3.25846e-09 -3.50561e-09 2.64266e-09) (3.80304e-09 -3.87974e-09 3.28385e-09) (4.41424e-09 -4.59409e-09 4.73595e-09) (4.99657e-09 -4.87763e-09 4.59306e-09) (5.50695e-09 -5.28376e-09 5.27168e-09) (5.44926e-09 -5.06136e-09 4.89678e-09)
2750          (1.86862e-10 2.47414e-11 6.12575e-11) (7.41862e-10 -3.83003e-10 1.00886e-09) (1.48548e-09 -1.31134e-09 1.66868e-09) (2.09595e-09 -2.01475e-09 2.89927e-09) (2.5942e-09 -2.64793e-09 2.85788e-09) (3.43925e-09 -3.15713e-09 3.31397e-09) (3.66983e-09 -3.70425e-09 3.71943e-09) (4.44328e-09 -4.54108e-09 4.14246e-09) (4.93224e-09 -4.94984e-09 4.34024e-09) (5.19034e-09 -5.21136e-09 4.51217e-09) (5.21776e-09 -5.29074e-09 5.34653e-09)
2800          (-1.35741e-10 2.21178e-11 1.89081e-10) (7.91634e-10 -6.50784e-10 7.72856e-10) (1.30081e-09 -1.32072e-09 1.34492e-10) (1.94261e-09 -2.05322e-09 9.44046e-10) (2.59903e-09 -2.85236e-09 1.80754e-09) (3.41548e-09 -3.19954e-09 1.73809e-09) (3.94872e-09 -3.88615e-09 2.49007e-09) (4.35885e-09 -4.47052e-09 2.63549e-09) (5.08434e-09 -4.72571e-09 3.22473e-09) (5.17125e-09 -5.15711e-09 4.20352e-09) (5.09406e-09 -5.23207e-09 4.25918e-09)
2850          (4.85107e-11 3.2277e-11 2.06062e-10) (3.48581e-10 -7.50369e-10 3.38121e-10) (1.50243e-09 -1.36637e-09 1.18351e-09) (1.93762e-09 -2.02411e-09 1.85289e-09) (2.62351e-09 -2.73584e-09 1.95645e-09) (3.24094e-09 -3.59724e-09 3.24379e-09) (3.90918e-09 -3.95265e-09 3.60867e-09) (4.44838e-09 -4.17944e-09 4.26601e-09) (4.90133e-09 -4.67163e-09 5.22447e-09) (5.17575e-09 -5.00715e-09 4.4329e-09) (5.24414e-09 -5.09066e-09 5.49263e-09)
2900          (1.68987e-10 -1.16811e-10 -8.84976e-11) (4.94144e-10 -5.70605e-10 2.93781e-10) (1.37555e-09 -1.29188e-09 3.32807e-10) (2.17345e-09 -1.96894e-09 1.03404e-09) (2.86882e-09 -2.51002e-09 1.39651e-09) (3.36938e-09 -3.20268e-09 1.44958e-09) (3.95971e-09 -3.91331e-09 2.57188e-09) (4.18132e-09 -4.53875e-09 4.04185e-09) (4.8083e-09 -4.92475e-09 4.04599e-09) (5.22448e-09 -5.20861e-09 4.95336e-09) (5.76093e-09 -5.28838e-09 4.85947e-09)
2950          (1.28836e-10 2.18334e-11 1.5272e-10) (6.1959e-10 -5.87136e-10 6.77767e-10) (1.31533e-09 -1.29489e-09 1.77846e-09) (2.00114e-09 -2.25058e-09 1.7953e-09) (2.66493e-09 -3.04312e-09 2.58144e-09) (3.62039e-09 -3.63106e-09 2.75524e-09) (3.85601e-09 -4.18856e-09 3.22966e-09) (4.64743e-09 -4.37963e-09 3.93686e-09) (4.75258e-09 -4.81318e-09 4.20307e-09) (5.48579e-09 -5.34822e-09 5.09771e-09) (5.6377e-09 -5.2954e-09 4.86913e-09)
3000          (2.15756e-10 -4.87041e-11 1.87437e-10) (6.67675e-10 -8.31587e-10 3.19995e-10) (1.36145e-09 -1.36767e-09 6.88247e-10) (2.01402e-09 -2.11948e-09 7.97998e-10) (2.59425e-09 -2.93755e-09 1.56725e-09) (3.18344e-09 -3.10693e-09 2.17974e-09) (3.88154e-09 -3.85084e-09 1.91276e-09) (4.63033e-09 -4.23643e-09 2.84023e-09) (4.92215e-09 -4.8016e-09 3.12307e-09) (5.34447e-09 -5.12127e-09 3.66836e-09) (5.22986e-09 -5.43644e-09 4.35652e-09)
3050          (1.00704e-10 -4.07401e-11 -9.89352e-11) (5.63781e-10 -5.45202e-10 3.65191e-10) (1.09431e-09 -1.24097e-09 1.46467e-09) (2.15537e-09 -2.03565e-09 2.03885e-09) (2.78558e-09 -2.72993e-09 1.79899e-09) (3.33296e-09 -3.48406e-09 1.62307e-09) (3.84602e-09 -4.03017e-09 2.55137e-09) (4.446e-09 -4.6146e-09 3.42273e-09) (4.9902e-09 -4.97019e-09 3.70186e-09) (5.27912e-09 -4.99615e-09 3.86398e-09) (5.55202e-09 -5.1625e-09 4.55234e-09)
3100          (6.92369e-11 1.18573e-11 2.02448e-10) (7.74643e-10 -8.0423e-10 1.13417e-09) (1.43427e-09 -1.58921e-09 7.99586e-10) (2.29402e-09 -1.8225e-09 1.27693e-09) (2.76768e-09 -2.49457e-09 1.62421e-09) (3.39144e-09 -3.65066e-09 2.34244e-09) (3.98615e-09 -4.20253e-09 2.57029e-09) (4.62699e-09 -4.61036e-09 3.3911e-09) (4.9257e-09 -4.78552e-09 4.00977e-09) (5.15936e-09 -5.25001e-09 4.95948e-09) (5.2166e-09 -5.5391e-09 4.76137e-09)
3150          (1.33004e-10 -2.88547e-11 -9.22227e-12) (6.76008e-10 -6.35423e-10 9.25647e-10) (8.60553e-10 -1.41958e-09 4.22276e-10) (2.04638e-09 -2.10908e-09 1.60241e-09) (2.82689e-09 -2.62265e-09 2.2264e-09) (3.25719e-09 -3.46022e-09 3.33158e-09) (3.94807e-09 -3.94372e-09 3.56404e-09) (4.60172e-09 -4.46908e-09 4.15752e-09) (4.79846e-09 -4.97583e-09 4.17789e-09) (4.9651e-09 -5.38585e-09 4.44035e-09) (5.50908e-09 -5.40089e-09 5.0556e-09)
3200          (5.08712e-11 -4.7511e-11 -2.29416e-11) (6.45217e-10 -5.55921e-10 1.07959e-09) (1.5782e-09 -1.08076e-09 9.75334e-10) (2.11611e-09 -1.76971e-09 9.62566e-10) (2.56387e-09 -2.68446e-09 2.3029e-09) (3.16421e-09 -3.28453e-09 2.51989e-09) (3.75449e-09 -3.79255e-09 3.5681e-09) (4.36108e-09 -4.36289e-09 4.06511e-09) (5.17991e-09 -4.86444e-09 3.89736e-09) (5.34973e-09 -5.23051e-09 3.58983e-09) (5.418e-09 -5.46375e-09 4.6642e-09)
3250          (1.16953e-10 -5.76463e-11 1.54383e-10) (8.24688e-10 -5.56488e-10 1.36277e-10) (1.39473e-09 -1.43612e-09 1.54177e-09) (2.12005e-09 -1.93082e-09 1.49905e-09) (2.86226e-09 -2.82618e-09 2.64326e-09) (3.47077e-09 -3.43342e-09 3.40728e-09) (4.27483e-09 -3.72906e-09 3.02353e-09) (4.55818e-09 -4.53122e-09 3.625e-09) (4.90967e-09 -4.95817e-09 4.71556e-09) (5.45288e-09 -5.35332e-09 4.90066e-09) (5.3536e-09 -5.60548e-09 5.18662e-09)
3300          (1.63795e-10 -1.86655e-11 1.17903e-10) (7.12739e-10 -5.93501e-10 2.82167e-10) (1.39629e-09 -1.40141e-09 1.11832e-09) (1.95455e-09 -2.11577e-09 1.09743e-09) (2.63219e-09 -2.80153e-09 1.48785e-09) (3.48842e-09 -3.17367e-09 2.8533e-09) (3.82956e-09 -4.05774e-09 3.06404e-09) (4.37447e-09 -4.44979e-09 3.58832e-09) (5.02886e-09 -4.93592e-09 4.69421e-09) (4.93132e-09 -5.22858e-09 5.18195e-09) (5.15258e-09 -5.2522e-09 5.05789e-09)