# Probe 0 (0.0015 0.0015 0)
# Probe 1 (0.0015 0.0015 0.002)
# Probe 2 (0.0015 0.0015 0.004)
# Probe 3 (0.0015 0.0015 0.006)
# Probe 4 (0.0015 0.0015 0.008)
# Probe 5 (0.0015 0.0015 0.01)
# Probe 6 (0.0015 0.0015 0.012)
# Probe 7 (0.0015 0.0015 0.014)
# Probe 8 (0.0015 0.0015 0.016)
# Probe 9 (0.0015 0.0015 0.018)
# Probe 10 (0.0015 0.0015 0.02)
# Time        0             1             2             3             4             5             6             7             8             9             10           
50            196336        160528        126166        100576        83530.8       72731.7       65365.2       58941.5       51401.4       41021.3       26500.6      
100           204878        178358        150196        124982        103538        86035.6       71868.8       59853         48614.2       36941         24045.1      
150           208276        185669        160944        137555        115983        96543.2       79288.3       63954.2       50005.7       36781.4       23685.3      
200           210026        189471        166692        144631        123582        103787        85399.1       68437.4       52769.8       38121.5       24123        
250           211065        191740        170178        149044        128535        108826        90058.8       72318.3       55609.8       39841.9       24809.4      
300           211742        193226        172483        152011        131947        112422        93549.9       75414.1       58056.1       41453.7       25492.5      
350           212211        194257        174091        154100        134383        115037        96149.6       77790.2       60002         42784.8       26071.9      
400           212547        194995        175245        155606        136152        116953        98076.1       79576         61488.3       43819.7       26527.4      
450           212791        195531        176085        156705        137445        118359        99497.1       80901.1       62599.2       44599         26872.7      
500           212969        195923        176699        157508        138391        119389        100540        81876.1       63418.9       45175.8       27128.9      
550           213099        196209        177147        158095        139082        120142        101303        82589.4       64019.3       45598.8       27316.8      
600           213193        196417        177474        158522        139586        120691        101859        83109.4       64456.8       45907.2       27453.9      
650           213263        196570        177712        158834        139953        121091        102264        83487.7       64775.2       46131.5       27553.7      
700           213313        196680        177885        159060        140220        121381        102557        83762.4       65006         46294.1       27626        
750           213349        196761        178011        159225        140414        121591        102771        83961.4       65173.4       46412.1       27678.3      
800           213375        196817        178100        159341        140551        121740        102921        84102.4       65292         46495.7       27715.6      
850           213393        196858        178164        159425        140650        121849        103031        84205.6       65378.9       46557.1       27743.1      
900           213406        196887        178209        159483        140719        121923        103107        84276.3       65438.3       46599         27761.7      
950           213416        196908        178242        159526        140769        121978        103163        84328.4       65482.4       46630         27775.4      
1000          213423        196923        178265        159557        140806        122019        103203        84366.5       65514.8       46652.8       27785.6      
1050          213428        196933        178282        159579        140831        122046        103231        84392.7       65536         46668.4       27792.1      
1100          213431        196941        178294        159594        140850        122066        103252        84411.7       65552.7       46679.4       27797.7      
1150          213433        196945        178301        159604        140861        122079        103264        84423.9       65562.8       46687.2       27800.6      
1200          213434        196948        178305        159610        140868        122086        103272        84431.1       65568.8       46691.7       27802.5      
1250          213435        196950        178309        159614        140873        122092        103278        84436.7       65574.3       46694.5       27804.9      
1300          213436        196951        178309        159615        140874        122093        103279        84437.8       65574.9       46695.5       27804.7      
1350          213436        196951        178309        159615        140874        122093        103279        84437.8       65574.9       46695.5       27804.7      
1400          213436        196951        178309        159615        140874        122093        103279        84437.8       65574.9       46695.5       27804.7      
1450          213436        196951        178309        159615        140874        122093        103279        84437.8       65574.9       46695.5       27804.7      
1500          213436        196951        178309        159615        140874        122093        103279        84437.8       65574.9       46695.5       27804.7      
1550          213436        196951        178309        159615        140874        122093        103279        84437.8       65574.9       46695.5       27804.7      
1600          213436        196951        178309        159615        140874        122093        103279        84437.8       65574.9       46695.5       27804.7      
1650          213436        196951        178309        159615        140874        122093        103279        84437.8       65574.9       46695.5       27804.7      
1700          213436        196951        178309        159615        140874        122093        103279        84437.8       65574.9       46695.5       27804.7      
1750          213436        196951        178309        159615        140874        122093        103279        84437.8       65574.9       46695.5       27804.7      
1800          213436        196951        178309        159615        140874        122093        103279        84437.8       65574.9       46695.5       27804.7      
1850          213436        196951        178309        159615        140874        122093        103279        84437.8       65574.9       46695.5       27804.7      
1900          213436        196951        178309        159615        140874        122093        103279        84437.8       65574.9       46695.5       27804.7      
1950          213436        196951        178309        159615        140874        122093        103279        84437.8       65574.9       46695.5       27804.7      
2000          213436        196951        178309        159615        140874        122093        103279        84437.8       65574.9       46695.5       27804.7      
2050          213436        196951        178309        159615        140874        122093        103279        84437.8       65574.9       46695.5       27804.7      
2100          213436        196951        178309        159615        140874        122093        103279        84437.8       65574.9       46695.5       27804.7      
2150          213436        196951        178309        159615        140874        122093        103279        84437.8       65574.9       46695.5       27804.7      
2200          213436        196951        178309        159615        140874        122093        103279        84437.8       65574.9       46695.5       27804.7      
2250          213436        196951        178309        159615        140874        122093        103279        84437.8       65574.9       46695.5       27804.7      
2300          213436        196951        178309        159615        140874        122093        103279        84437.8       65574.9       46695.5       27804.7      
2350          213436        196951        178309        159615        140874        122093        103279        84437.8       65574.9       46695.5       27804.7      
2400          213436        196951        178309        159615        140874        122093        103279        84437.8       65574.9       46695.5       27804.7      
2450          213436        196951        178309        159615        140874        122093        103279        84437.8       65574.9       46695.5       27804.7      
2500          213436        196951        178309        159615        140874        122093        103279        84437.8       65574.9       46695.5       27804.7      
2550          213436        196951        178309        159615        140874        122093        103279        84437.8       65574.9       46695.5       27804.7      
2600          213436        196951        178309        159615        140874        122093        103279        84437.8       65574.9       46695.5       27804.7      
2650          213436        196951        178309        159615        140874        122093        103279        84437.8       65574.9       46695.5       27804.7      
2700          213436        196951        178309        159615        140874        122093        103279        84437.8       65574.9       46695.5       27804.7      
2750          213436        196951        178309        159615        140874        122093        103279        84437.8       65574.9       46695.5       27804.7      
2800          213436        196951        178309        159615        140874        122093        103279        84437.8       65574.9       46695.5       27804.7      
2850          213436        196951        178309        159615        140874        122093        103279        84437.8       65574.9       46695.5       27804.7      
2900          213436        196951        178309        159615        140874        122093        103279        84437.8       65574.9       46695.5       27804.7      
2950          213436        196951        178309        159615        140874        122093        103279        84437.8       65574.9       46695.5       27804.7      
3000          213436        196951        178309        159615        140874        122093        103279        84437.8       65574.9       46695.5       27804.7      
3050          213436        196951        178309        159615        140874        122093        103279        84437.8       65574.9       46695.5       27804.7      
3100          213436        196951        178309        159615        140874        122093        103279        84437.8       65574.9       46695.5       27804.7      
3150          213436        196951        178309        159615        140874        122093        103279        84437.8       65574.9       46695.5       27804.7      
3200          213436        196951        178309        159615        140874        122093        103279        84437.8       65574.9       46695.5       27804.7      
3250          213436        196951        178309        159615        140874        122093        103279        84437.8       65574.9       46695.5       27804.7      
3300          213436        196951        178309        159615        140874        122093        103279        84437.8       65574.9       46695.5       27804.7      
3350          213436        196951        178309        159615        140874        122093        103279        84437.8       65574.9       46695.5       27804.7      
3400          213436        196951        178309        159615        140874        122093        103279        84437.8       65574.9       46695.5       27804.7      
3450          213436        196951        178309        159615        140874        122093        103279        84437.8       65574.9       46695.5       27804.7      
3500          213436        196951        178309        159615        140874        122093        103279        84437.8       65574.9       46695.5       27804.7      
3550          213436        196951        178309        159615        140874        122093        103279        84437.8       65574.9       46695.5       27804.7      
3600          213436        196951        178309        159615        140874        122093        103279        84437.8       65574.9       46695.5       27804.7      
3650          213436        196951        178309        159615        140874        122093        103279        84437.8       65574.9       46695.5       27804.7      
3700          213436        196951        178309        159615        140874        122093        103279        84437.8       65574.9       46695.5       27804.7      
3750          213436        196951        178309        159615        140874        122093        103279        84437.8       65574.9       46695.5       27804.7      
3800          213436        196951        178309        159615        140874        122093        103279        84437.8       65574.9       46695.5       27804.7      
3850          213436        196951        178309        159615        140874        122093        103279        84437.8       65574.9       46695.5       27804.7      
3900          213436        196951        178309        159615        140874        122093        103279        84437.8       65574.9       46695.5       27804.7      
3950          213436        196951        178309        159615        140874        122093        103279        84437.8       65574.9       46695.5       27804.7      
4000          213436        196951        178309        159615        140874        122093        103279        84437.8       65574.9       46695.5       27804.7      
4050          213436        196951        178309        159615        140874        122093        103279        84437.8       65574.9       46695.5       27804.7      
4100          213436        196951        178309        159615        140874        122093        103279        84437.8       65574.9       46695.5       27804.7      
4150          213436        196951        178309        159615        140874        122093        103279        84437.8       65574.9       46695.5       27804.7      
4200          213436        196951        178309        159615        140874        122093        103279        84437.8       65574.9       46695.5       27804.7      
4250          213436        196951        178309        159615        140874        122093        103279        84437.8       65574.9       46695.5       27804.7      
4300          213436        196951        178309        159615        140874        122093        103279        84437.8       65574.9       46695.5       27804.7      
4350          213436        196951        178309        159615        140874        122093        103279        84437.8       65574.9       46695.5       27804.7      
4400          213436        196951        178309        159615        140874        122093        103279        84437.8       65574.9       46695.5       27804.7      
4450          213436        196951        178309        159615        140874        122093        103279        84437.8       65574.9       46695.5       27804.7      
4500          213436        196951        178309        159615        140874        122093        103279        84437.8       65574.9       46695.5       27804.7      
4550          213436        196951        178309        159615        140874        122093        103279        84437.8       65574.9       46695.5       27804.7      
4600          213436        196951        178309        159615        140874        122093        103279        84437.8       65574.9       46695.5       27804.7      
4650          213436        196951        178309        159615        140874        122093        103279        84437.8       65574.9       46695.5       27804.7      
4700          213436        196951        178309        159615        140874        122093        103279        84437.8       65574.9       46695.5       27804.7      
4750          213436        196951        178309        159615        140874        122093        103279        84437.8       65574.9       46695.5       27804.7      
4800          213436        196951        178309        159615        140874        122093        103279        84437.8       65574.9       46695.5       27804.7      
4850          213436        196951        178309        159615        140874        122093        103279        84437.8       65574.9       46695.5       27804.7      
4900          213436        196951        178309        159615        140874        122093        103279        84437.8       65574.9       46695.5       27804.7      
4950          213436        196951        178309        159615        140874        122093        103279        84437.8       65574.9       46695.5       27804.7      
5000          213436        196951        178309        159615        140874        122093        103279        84437.8       65574.9       46695.5       27804.7      
