# Probe 0 (0.0015 0.0015 0)
# Probe 1 (0.0015 0.0015 0.002)
# Probe 2 (0.0015 0.0015 0.004)
# Probe 3 (0.0015 0.0015 0.006)
# Probe 4 (0.0015 0.0015 0.008)
# Probe 5 (0.0015 0.0015 0.01)
# Probe 6 (0.0015 0.0015 0.012)
# Probe 7 (0.0015 0.0015 0.014)
# Probe 8 (0.0015 0.0015 0.016)
# Probe 9 (0.0015 0.0015 0.018)
# Probe 10 (0.0015 0.0015 0.02)
# Time        0             1             2             3             4             5             6             7             8             9             10           
50            0.000588237   0.000588234   0.000588234   0.000588234   0.000588234   0.000588234   0.000588234   0.000588234   0.000588234   0.000588234   0.000588235  
100           0.000588237   0.000588234   0.000588234   0.000588234   0.000588234   0.000588234   0.000588234   0.000588234   0.000588234   0.000588234   0.000588235  
150           0.000588237   0.000588234   0.000588234   0.000588234   0.000588234   0.000588234   0.000588234   0.000588234   0.000588234   0.000588234   0.000588235  
200           0.000588237   0.000588234   0.000588234   0.000588234   0.000588234   0.000588234   0.000588234   0.000588234   0.000588234   0.000588234   0.000588235  
250           0.000588237   0.000588234   0.000588234   0.000588234   0.000588234   0.000588234   0.000588234   0.000588234   0.000588234   0.000588234   0.000588235  
300           0.000588237   0.000588234   0.000588234   0.000588234   0.000588234   0.000588234   0.000588234   0.000588234   0.000588234   0.000588234   0.000588235  
350           0.000588237   0.000588234   0.000588234   0.000588234   0.000588234   0.000588234   0.000588234   0.000588234   0.000588234   0.000588234   0.000588235  
400           0.000588237   0.000588234   0.000588234   0.000588234   0.000588234   0.000588234   0.000588234   0.000588234   0.000588234   0.000588234   0.000588235  
450           0.000588237   0.000588234   0.000588234   0.000588234   0.000588234   0.000588234   0.000588234   0.000588234   0.000588234   0.000588234   0.000588235  
500           0.000588237   0.000588234   0.000588234   0.000588234   0.000588234   0.000588234   0.000588234   0.000588234   0.000588234   0.000588234   0.000588235  
550           0.000588237   0.000588234   0.000588234   0.000588234   0.000588234   0.000588234   0.000588234   0.000588234   0.000588234   0.000588234   0.000588235  
600           0.000588237   0.000588234   0.000588234   0.000588234   0.000588234   0.000588234   0.000588234   0.000588234   0.000588234   0.000588234   0.000588235  
650           0.000588237   0.000588234   0.000588234   0.000588234   0.000588234   0.000588234   0.000588234   0.000588234   0.000588234   0.000588234   0.000588235  
700           0.000588237   0.000588234   0.000588234   0.000588234   0.000588234   0.000588234   0.000588234   0.000588234   0.000588234   0.000588234   0.000588235  
750           0.000588237   0.000588234   0.000588234   0.000588234   0.000588234   0.000588234   0.000588234   0.000588234   0.000588234   0.000588234   0.000588235  
800           0.000588237   0.000588234   0.000588234   0.000588234   0.000588234   0.000588234   0.000588234   0.000588234   0.000588234   0.000588234   0.000588235  
850           0.000588237   0.000588234   0.000588234   0.000588234   0.000588234   0.000588234   0.000588234   0.000588234   0.000588234   0.000588234   0.000588235  
900           0.000588237   0.000588234   0.000588234   0.000588234   0.000588234   0.000588234   0.000588234   0.000588234   0.000588234   0.000588234   0.000588235  
950           0.000588237   0.000588234   0.000588234   0.000588234   0.000588234   0.000588234   0.000588234   0.000588234   0.000588234   0.000588234   0.000588235  
1000          0.000588237   0.000588234   0.000588234   0.000588234   0.000588234   0.000588234   0.000588234   0.000588234   0.000588234   0.000588234   0.000588235  
1050          0.000588237   0.000588234   0.000588234   0.000588234   0.000588234   0.000588234   0.000588234   0.000588234   0.000588234   0.000588234   0.000588235  
1100          0.000588237   0.000588234   0.000588234   0.000588234   0.000588234   0.000588234   0.000588234   0.000588234   0.000588234   0.000588234   0.000588235  
1150          0.000588237   0.000588234   0.000588234   0.000588234   0.000588234   0.000588234   0.000588234   0.000588234   0.000588234   0.000588234   0.000588235  
1200          0.000588237   0.000588234   0.000588234   0.000588234   0.000588234   0.000588234   0.000588234   0.000588234   0.000588234   0.000588234   0.000588235  
1250          0.000588237   0.000588234   0.000588234   0.000588234   0.000588234   0.000588234   0.000588234   0.000588234   0.000588234   0.000588234   0.000588235  
1300          0.000588237   0.000588234   0.000588234   0.000588234   0.000588234   0.000588234   0.000588234   0.000588234   0.000588234   0.000588234   0.000588235  
1350          0.000588237   0.000588234   0.000588234   0.000588234   0.000588234   0.000588234   0.000588234   0.000588234   0.000588234   0.000588234   0.000588235  
1400          0.000588237   0.000588234   0.000588234   0.000588234   0.000588234   0.000588234   0.000588234   0.000588234   0.000588234   0.000588234   0.000588235  
1450          0.000588237   0.000588234   0.000588234   0.000588234   0.000588234   0.000588234   0.000588234   0.000588234   0.000588234   0.000588234   0.000588235  
1500          0.000588237   0.000588234   0.000588234   0.000588234   0.000588234   0.000588234   0.000588234   0.000588234   0.000588234   0.000588234   0.000588235  
1550          0.000588237   0.000588234   0.000588234   0.000588234   0.000588234   0.000588234   0.000588234   0.000588234   0.000588234   0.000588234   0.000588235  
1600          0.000588237   0.000588234   0.000588234   0.000588234   0.000588234   0.000588234   0.000588234   0.000588234   0.000588234   0.000588234   0.000588235  
1650          0.000588237   0.000588234   0.000588234   0.000588234   0.000588234   0.000588234   0.000588234   0.000588234   0.000588234   0.000588234   0.000588235  
1700          0.000588237   0.000588234   0.000588234   0.000588234   0.000588234   0.000588234   0.000588234   0.000588234   0.000588234   0.000588234   0.000588235  
1750          0.000588237   0.000588234   0.000588234   0.000588234   0.000588234   0.000588234   0.000588234   0.000588234   0.000588234   0.000588234   0.000588235  
1800          0.000588237   0.000588234   0.000588234   0.000588234   0.000588234   0.000588234   0.000588234   0.000588234   0.000588234   0.000588234   0.000588235  
1850          0.000588237   0.000588234   0.000588234   0.000588234   0.000588234   0.000588234   0.000588234   0.000588234   0.000588234   0.000588234   0.000588235  
1900          0.000588237   0.000588234   0.000588234   0.000588234   0.000588234   0.000588234   0.000588234   0.000588234   0.000588234   0.000588234   0.000588235  
1950          0.000588237   0.000588234   0.000588234   0.000588234   0.000588234   0.000588234   0.000588234   0.000588234   0.000588234   0.000588234   0.000588235  
2000          0.000588237   0.000588234   0.000588234   0.000588234   0.000588234   0.000588234   0.000588234   0.000588234   0.000588234   0.000588234   0.000588235  
2050          0.000588237   0.000588234   0.000588234   0.000588234   0.000588234   0.000588234   0.000588234   0.000588234   0.000588234   0.000588234   0.000588235  
2100          0.000588237   0.000588234   0.000588234   0.000588234   0.000588234   0.000588234   0.000588234   0.000588234   0.000588234   0.000588234   0.000588235  
2150          0.000588237   0.000588234   0.000588234   0.000588234   0.000588234   0.000588234   0.000588234   0.000588234   0.000588234   0.000588234   0.000588235  
2200          0.000588237   0.000588234   0.000588234   0.000588234   0.000588234   0.000588234   0.000588234   0.000588234   0.000588234   0.000588234   0.000588235  
2250          0.000588237   0.000588234   0.000588234   0.000588234   0.000588234   0.000588234   0.000588234   0.000588234   0.000588234   0.000588234   0.000588235  
2300          0.000588237   0.000588234   0.000588234   0.000588234   0.000588234   0.000588234   0.000588234   0.000588234   0.000588234   0.000588234   0.000588235  
2350          0.000588237   0.000588234   0.000588234   0.000588234   0.000588234   0.000588234   0.000588234   0.000588234   0.000588234   0.000588234   0.000588235  
2400          0.000588237   0.000588234   0.000588234   0.000588234   0.000588234   0.000588234   0.000588234   0.000588234   0.000588234   0.000588234   0.000588235  
2450          0.000588237   0.000588234   0.000588234   0.000588234   0.000588234   0.000588234   0.000588234   0.000588234   0.000588234   0.000588234   0.000588235  
2500          0.000588237   0.000588234   0.000588234   0.000588234   0.000588234   0.000588234   0.000588234   0.000588234   0.000588234   0.000588234   0.000588235  
2550          0.000588237   0.000588234   0.000588234   0.000588234   0.000588234   0.000588234   0.000588234   0.000588234   0.000588234   0.000588234   0.000588235  
2600          0.000588237   0.000588234   0.000588234   0.000588234   0.000588234   0.000588234   0.000588234   0.000588234   0.000588234   0.000588234   0.000588235  
2650          0.000588237   0.000588234   0.000588234   0.000588234   0.000588234   0.000588234   0.000588234   0.000588234   0.000588234   0.000588234   0.000588235  
2700          0.000588237   0.000588234   0.000588234   0.000588234   0.000588234   0.000588234   0.000588234   0.000588234   0.000588234   0.000588234   0.000588235  
2750          0.000588237   0.000588234   0.000588234   0.000588234   0.000588234   0.000588234   0.000588234   0.000588234   0.000588234   0.000588234   0.000588235  
2800          0.000588237   0.000588234   0.000588234   0.000588234   0.000588234   0.000588234   0.000588234   0.000588234   0.000588234   0.000588234   0.000588235  
2850          0.000588237   0.000588234   0.000588234   0.000588234   0.000588234   0.000588234   0.000588234   0.000588234   0.000588234   0.000588234   0.000588235  
2900          0.000588237   0.000588234   0.000588234   0.000588234   0.000588234   0.000588234   0.000588234   0.000588234   0.000588234   0.000588234   0.000588235  
2950          0.000588237   0.000588234   0.000588234   0.000588234   0.000588234   0.000588234   0.000588234   0.000588234   0.000588234   0.000588234   0.000588235  
3000          0.000588237   0.000588234   0.000588234   0.000588234   0.000588234   0.000588234   0.000588234   0.000588234   0.000588234   0.000588234   0.000588235  
3050          0.000588237   0.000588234   0.000588234   0.000588234   0.000588234   0.000588234   0.000588234   0.000588234   0.000588234   0.000588234   0.000588235  
3100          0.000588237   0.000588234   0.000588234   0.000588234   0.000588234   0.000588234   0.000588234   0.000588234   0.000588234   0.000588234   0.000588235  
3150          0.000588237   0.000588234   0.000588234   0.000588234   0.000588234   0.000588234   0.000588234   0.000588234   0.000588234   0.000588234   0.000588235  
3200          0.000588237   0.000588234   0.000588234   0.000588234   0.000588234   0.000588234   0.000588234   0.000588234   0.000588234   0.000588234   0.000588235  
3250          0.000588237   0.000588234   0.000588234   0.000588234   0.000588234   0.000588234   0.000588234   0.000588234   0.000588234   0.000588234   0.000588235  
3300          0.000588237   0.000588234   0.000588234   0.000588234   0.000588234   0.000588234   0.000588234   0.000588234   0.000588234   0.000588234   0.000588235  
3350          0.000588237   0.000588234   0.000588234   0.000588234   0.000588234   0.000588234   0.000588234   0.000588234   0.000588234   0.000588234   0.000588235  
3400          0.000588237   0.000588234   0.000588234   0.000588234   0.000588234   0.000588234   0.000588234   0.000588234   0.000588234   0.000588234   0.000588235  
3450          0.000588237   0.000588234   0.000588234   0.000588234   0.000588234   0.000588234   0.000588234   0.000588234   0.000588234   0.000588234   0.000588235  
3500          0.000588237   0.000588234   0.000588234   0.000588234   0.000588234   0.000588234   0.000588234   0.000588234   0.000588234   0.000588234   0.000588235  
3550          0.000588237   0.000588234   0.000588234   0.000588234   0.000588234   0.000588234   0.000588234   0.000588234   0.000588234   0.000588234   0.000588235  
3600          0.000588237   0.000588234   0.000588234   0.000588234   0.000588234   0.000588234   0.000588234   0.000588234   0.000588234   0.000588234   0.000588235  
3650          0.000588237   0.000588234   0.000588234   0.000588234   0.000588234   0.000588234   0.000588234   0.000588234   0.000588234   0.000588234   0.000588235  
3700          0.000588237   0.000588234   0.000588234   0.000588234   0.000588234   0.000588234   0.000588234   0.000588234   0.000588234   0.000588234   0.000588235  
3750          0.000588237   0.000588234   0.000588234   0.000588234   0.000588234   0.000588234   0.000588234   0.000588234   0.000588234   0.000588234   0.000588235  
3800          0.000588237   0.000588234   0.000588234   0.000588234   0.000588234   0.000588234   0.000588234   0.000588234   0.000588234   0.000588234   0.000588235  
3850          0.000588237   0.000588234   0.000588234   0.000588234   0.000588234   0.000588234   0.000588234   0.000588234   0.000588234   0.000588234   0.000588235  
3900          0.000588237   0.000588234   0.000588234   0.000588234   0.000588234   0.000588234   0.000588234   0.000588234   0.000588234   0.000588234   0.000588235  
3950          0.000588237   0.000588234   0.000588234   0.000588234   0.000588234   0.000588234   0.000588234   0.000588234   0.000588234   0.000588234   0.000588235  
4000          0.000588237   0.000588234   0.000588234   0.000588234   0.000588234   0.000588234   0.000588234   0.000588234   0.000588234   0.000588234   0.000588235  
4050          0.000588237   0.000588234   0.000588234   0.000588234   0.000588234   0.000588234   0.000588234   0.000588234   0.000588234   0.000588234   0.000588235  
4100          0.000588237   0.000588234   0.000588234   0.000588234   0.000588234   0.000588234   0.000588234   0.000588234   0.000588234   0.000588234   0.000588235  
4150          0.000588237   0.000588234   0.000588234   0.000588234   0.000588234   0.000588234   0.000588234   0.000588234   0.000588234   0.000588234   0.000588235  
4200          0.000588237   0.000588234   0.000588234   0.000588234   0.000588234   0.000588234   0.000588234   0.000588234   0.000588234   0.000588234   0.000588235  
4250          0.000588237   0.000588234   0.000588234   0.000588234   0.000588234   0.000588234   0.000588234   0.000588234   0.000588234   0.000588234   0.000588235  
4300          0.000588237   0.000588234   0.000588234   0.000588234   0.000588234   0.000588234   0.000588234   0.000588234   0.000588234   0.000588234   0.000588235  
4350          0.000588237   0.000588234   0.000588234   0.000588234   0.000588234   0.000588234   0.000588234   0.000588234   0.000588234   0.000588234   0.000588235  
4400          0.000588237   0.000588234   0.000588234   0.000588234   0.000588234   0.000588234   0.000588234   0.000588234   0.000588234   0.000588234   0.000588235  
4450          0.000588237   0.000588234   0.000588234   0.000588234   0.000588234   0.000588234   0.000588234   0.000588234   0.000588234   0.000588234   0.000588235  
4500          0.000588237   0.000588234   0.000588234   0.000588234   0.000588234   0.000588234   0.000588234   0.000588234   0.000588234   0.000588234   0.000588235  
4550          0.000588237   0.000588234   0.000588234   0.000588234   0.000588234   0.000588234   0.000588234   0.000588234   0.000588234   0.000588234   0.000588235  
4600          0.000588237   0.000588234   0.000588234   0.000588234   0.000588234   0.000588234   0.000588234   0.000588234   0.000588234   0.000588234   0.000588235  
4650          0.000588237   0.000588234   0.000588234   0.000588234   0.000588234   0.000588234   0.000588234   0.000588234   0.000588234   0.000588234   0.000588235  
4700          0.000588237   0.000588234   0.000588234   0.000588234   0.000588234   0.000588234   0.000588234   0.000588234   0.000588234   0.000588234   0.000588235  
4750          0.000588237   0.000588234   0.000588234   0.000588234   0.000588234   0.000588234   0.000588234   0.000588234   0.000588234   0.000588234   0.000588235  
4800          0.000588237   0.000588234   0.000588234   0.000588234   0.000588234   0.000588234   0.000588234   0.000588234   0.000588234   0.000588234   0.000588235  
4850          0.000588237   0.000588234   0.000588234   0.000588234   0.000588234   0.000588234   0.000588234   0.000588234   0.000588234   0.000588234   0.000588235  
4900          0.000588237   0.000588234   0.000588234   0.000588234   0.000588234   0.000588234   0.000588234   0.000588234   0.000588234   0.000588234   0.000588235  
4950          0.000588237   0.000588234   0.000588234   0.000588234   0.000588234   0.000588234   0.000588234   0.000588234   0.000588234   0.000588234   0.000588235  
5000          0.000588237   0.000588234   0.000588234   0.000588234   0.000588234   0.000588234   0.000588234   0.000588234   0.000588234   0.000588234   0.000588235  
