# Probe 0 (0.0015 0.0015 0)
# Probe 1 (0.0015 0.0015 0.002)
# Probe 2 (0.0015 0.0015 0.004)
# Probe 3 (0.0015 0.0015 0.006)
# Probe 4 (0.0015 0.0015 0.008)
# Probe 5 (0.0015 0.0015 0.01)
# Probe 6 (0.0015 0.0015 0.012)
# Probe 7 (0.0015 0.0015 0.014)
# Probe 8 (0.0015 0.0015 0.016)
# Probe 9 (0.0015 0.0015 0.018)
# Probe 10 (0.0015 0.0015 0.02)
# Time        0             1             2             3             4             5             6             7             8             9             10           
50            (442302 -74078.3 -9.38161e+06) (442302 -74078.3 -9.38161e+06) (442302 -74078.3 -9.38161e+06) (442302 -74078.3 -9.38161e+06) (442302 -74078.3 -9.38161e+06) (442302 -74078.3 -9.38161e+06) (442302 -74078.3 -9.38161e+06) (442302 -74078.3 -9.38161e+06) (442302 -74078.3 -9.38161e+06) (442302 -74078.3 -9.38161e+06) (442302 -74078.3 -9.38161e+06)
100           (786975 -190535 -9.38161e+06) (786975 -190535 -9.38161e+06) (786975 -190535 -9.38161e+06) (786975 -190535 -9.38161e+06) (786975 -190535 -9.38161e+06) (786975 -190535 -9.38161e+06) (786975 -190535 -9.38161e+06) (786975 -190535 -9.38161e+06) (786975 -190535 -9.38161e+06) (786975 -190535 -9.38161e+06) (786975 -190535 -9.38161e+06)
150           (904482 -196542 -9.38161e+06) (904482 -196542 -9.38161e+06) (904482 -196542 -9.38161e+06) (904482 -196542 -9.38161e+06) (904482 -196542 -9.38161e+06) (904482 -196542 -9.38161e+06) (904482 -196542 -9.38161e+06) (904482 -196542 -9.38161e+06) (904482 -196542 -9.38161e+06) (904482 -196542 -9.38161e+06) (904482 -196542 -9.38161e+06)
200           (934799 -203041 -9.38161e+06) (934799 -203041 -9.38161e+06) (934799 -203041 -9.38161e+06) (934799 -203041 -9.38161e+06) (934799 -203041 -9.38161e+06) (934799 -203041 -9.38161e+06) (934799 -203041 -9.38161e+06) (934799 -203041 -9.38161e+06) (934799 -203041 -9.38161e+06) (934799 -203041 -9.38161e+06) (934799 -203041 -9.38161e+06)
250           (941272 -206775 -9.38161e+06) (941272 -206775 -9.38161e+06) (941272 -206775 -9.38161e+06) (941272 -206775 -9.38161e+06) (941272 -206775 -9.38161e+06) (941272 -206775 -9.38161e+06) (941272 -206775 -9.38161e+06) (941272 -206775 -9.38161e+06) (941272 -206775 -9.38161e+06) (941272 -206775 -9.38161e+06) (941272 -206775 -9.38161e+06)
300           (942608 -208053 -9.38161e+06) (942608 -208053 -9.38161e+06) (942608 -208053 -9.38161e+06) (942608 -208053 -9.38161e+06) (942608 -208053 -9.38161e+06) (942608 -208053 -9.38161e+06) (942608 -208053 -9.38161e+06) (942608 -208053 -9.38161e+06) (942608 -208053 -9.38161e+06) (942608 -208053 -9.38161e+06) (942608 -208053 -9.38161e+06)
350           (942871 -208439 -9.38161e+06) (942871 -208439 -9.38161e+06) (942871 -208439 -9.38161e+06) (942871 -208439 -9.38161e+06) (942871 -208439 -9.38161e+06) (942871 -208439 -9.38161e+06) (942871 -208439 -9.38161e+06) (942871 -208439 -9.38161e+06) (942871 -208439 -9.38161e+06) (942871 -208439 -9.38161e+06) (942871 -208439 -9.38161e+06)
400           (942919 -208550 -9.38161e+06) (942919 -208550 -9.38161e+06) (942919 -208550 -9.38161e+06) (942919 -208550 -9.38161e+06) (942919 -208550 -9.38161e+06) (942919 -208550 -9.38161e+06) (942919 -208550 -9.38161e+06) (942919 -208550 -9.38161e+06) (942919 -208550 -9.38161e+06) (942919 -208550 -9.38161e+06) (942919 -208550 -9.38161e+06)
450           (942929 -208590 -9.38161e+06) (942929 -208590 -9.38161e+06) (942929 -208590 -9.38161e+06) (942929 -208590 -9.38161e+06) (942929 -208590 -9.38161e+06) (942929 -208590 -9.38161e+06) (942929 -208590 -9.38161e+06) (942929 -208590 -9.38161e+06) (942929 -208590 -9.38161e+06) (942929 -208590 -9.38161e+06) (942929 -208590 -9.38161e+06)
500           (942930 -208600 -9.38161e+06) (942930 -208600 -9.38161e+06) (942930 -208600 -9.38161e+06) (942930 -208600 -9.38161e+06) (942930 -208600 -9.38161e+06) (942930 -208600 -9.38161e+06) (942930 -208600 -9.38161e+06) (942930 -208600 -9.38161e+06) (942930 -208600 -9.38161e+06) (942930 -208600 -9.38161e+06) (942930 -208600 -9.38161e+06)
550           (942928 -208607 -9.38161e+06) (942928 -208607 -9.38161e+06) (942928 -208607 -9.38161e+06) (942928 -208607 -9.38161e+06) (942928 -208607 -9.38161e+06) (942928 -208607 -9.38161e+06) (942928 -208607 -9.38161e+06) (942928 -208607 -9.38161e+06) (942928 -208607 -9.38161e+06) (942928 -208607 -9.38161e+06) (942928 -208607 -9.38161e+06)
600           (942932 -208606 -9.38161e+06) (942932 -208606 -9.38161e+06) (942932 -208606 -9.38161e+06) (942932 -208606 -9.38161e+06) (942932 -208606 -9.38161e+06) (942932 -208606 -9.38161e+06) (942932 -208606 -9.38161e+06) (942932 -208606 -9.38161e+06) (942932 -208606 -9.38161e+06) (942932 -208606 -9.38161e+06) (942932 -208606 -9.38161e+06)
650           (942932 -208606 -9.38161e+06) (942932 -208606 -9.38161e+06) (942932 -208606 -9.38161e+06) (942932 -208606 -9.38161e+06) (942932 -208606 -9.38161e+06) (942932 -208606 -9.38161e+06) (942932 -208606 -9.38161e+06) (942932 -208606 -9.38161e+06) (942932 -208606 -9.38161e+06) (942932 -208606 -9.38161e+06) (942932 -208606 -9.38161e+06)
700           (942932 -208606 -9.38161e+06) (942932 -208606 -9.38161e+06) (942932 -208606 -9.38161e+06) (942932 -208606 -9.38161e+06) (942932 -208606 -9.38161e+06) (942932 -208606 -9.38161e+06) (942932 -208606 -9.38161e+06) (942932 -208606 -9.38161e+06) (942932 -208606 -9.38161e+06) (942932 -208606 -9.38161e+06) (942932 -208606 -9.38161e+06)
750           (942932 -208606 -9.38161e+06) (942932 -208606 -9.38161e+06) (942932 -208606 -9.38161e+06) (942932 -208606 -9.38161e+06) (942932 -208606 -9.38161e+06) (942932 -208606 -9.38161e+06) (942932 -208606 -9.38161e+06) (942932 -208606 -9.38161e+06) (942932 -208606 -9.38161e+06) (942932 -208606 -9.38161e+06) (942932 -208606 -9.38161e+06)
800           (942932 -208606 -9.38161e+06) (942932 -208606 -9.38161e+06) (942932 -208606 -9.38161e+06) (942932 -208606 -9.38161e+06) (942932 -208606 -9.38161e+06) (942932 -208606 -9.38161e+06) (942932 -208606 -9.38161e+06) (942932 -208606 -9.38161e+06) (942932 -208606 -9.38161e+06) (942932 -208606 -9.38161e+06) (942932 -208606 -9.38161e+06)
850           (942932 -208606 -9.38161e+06) (942932 -208606 -9.38161e+06) (942932 -208606 -9.38161e+06) (942932 -208606 -9.38161e+06) (942932 -208606 -9.38161e+06) (942932 -208606 -9.38161e+06) (942932 -208606 -9.38161e+06) (942932 -208606 -9.38161e+06) (942932 -208606 -9.38161e+06) (942932 -208606 -9.38161e+06) (942932 -208606 -9.38161e+06)
900           (942932 -208606 -9.38161e+06) (942932 -208606 -9.38161e+06) (942932 -208606 -9.38161e+06) (942932 -208606 -9.38161e+06) (942932 -208606 -9.38161e+06) (942932 -208606 -9.38161e+06) (942932 -208606 -9.38161e+06) (942932 -208606 -9.38161e+06) (942932 -208606 -9.38161e+06) (942932 -208606 -9.38161e+06) (942932 -208606 -9.38161e+06)
950           (942932 -208606 -9.38161e+06) (942932 -208606 -9.38161e+06) (942932 -208606 -9.38161e+06) (942932 -208606 -9.38161e+06) (942932 -208606 -9.38161e+06) (942932 -208606 -9.38161e+06) (942932 -208606 -9.38161e+06) (942932 -208606 -9.38161e+06) (942932 -208606 -9.38161e+06) (942932 -208606 -9.38161e+06) (942932 -208606 -9.38161e+06)
1000          (942932 -208606 -9.38161e+06) (942932 -208606 -9.38161e+06) (942932 -208606 -9.38161e+06) (942932 -208606 -9.38161e+06) (942932 -208606 -9.38161e+06) (942932 -208606 -9.38161e+06) (942932 -208606 -9.38161e+06) (942932 -208606 -9.38161e+06) (942932 -208606 -9.38161e+06) (942932 -208606 -9.38161e+06) (942932 -208606 -9.38161e+06)
1050          (942932 -208606 -9.38161e+06) (942932 -208606 -9.38161e+06) (942932 -208606 -9.38161e+06) (942932 -208606 -9.38161e+06) (942932 -208606 -9.38161e+06) (942932 -208606 -9.38161e+06) (942932 -208606 -9.38161e+06) (942932 -208606 -9.38161e+06) (942932 -208606 -9.38161e+06) (942932 -208606 -9.38161e+06) (942932 -208606 -9.38161e+06)
1100          (942932 -208606 -9.38161e+06) (942932 -208606 -9.38161e+06) (942932 -208606 -9.38161e+06) (942932 -208606 -9.38161e+06) (942932 -208606 -9.38161e+06) (942932 -208606 -9.38161e+06) (942932 -208606 -9.38161e+06) (942932 -208606 -9.38161e+06) (942932 -208606 -9.38161e+06) (942932 -208606 -9.38161e+06) (942932 -208606 -9.38161e+06)
1150          (942932 -208606 -9.38161e+06) (942932 -208606 -9.38161e+06) (942932 -208606 -9.38161e+06) (942932 -208606 -9.38161e+06) (942932 -208606 -9.38161e+06) (942932 -208606 -9.38161e+06) (942932 -208606 -9.38161e+06) (942932 -208606 -9.38161e+06) (942932 -208606 -9.38161e+06) (942932 -208606 -9.38161e+06) (942932 -208606 -9.38161e+06)
1200          (942932 -208606 -9.38161e+06) (942932 -208606 -9.38161e+06) (942932 -208606 -9.38161e+06) (942932 -208606 -9.38161e+06) (942932 -208606 -9.38161e+06) (942932 -208606 -9.38161e+06) (942932 -208606 -9.38161e+06) (942932 -208606 -9.38161e+06) (942932 -208606 -9.38161e+06) (942932 -208606 -9.38161e+06) (942932 -208606 -9.38161e+06)
1250          (942932 -208606 -9.38161e+06) (942932 -208606 -9.38161e+06) (942932 -208606 -9.38161e+06) (942932 -208606 -9.38161e+06) (942932 -208606 -9.38161e+06) (942932 -208606 -9.38161e+06) (942932 -208606 -9.38161e+06) (942932 -208606 -9.38161e+06) (942932 -208606 -9.38161e+06) (942932 -208606 -9.38161e+06) (942932 -208606 -9.38161e+06)
1300          (942932 -208606 -9.38161e+06) (942932 -208606 -9.38161e+06) (942932 -208606 -9.38161e+06) (942932 -208606 -9.38161e+06) (942932 -208606 -9.38161e+06) (942932 -208606 -9.38161e+06) (942932 -208606 -9.38161e+06) (942932 -208606 -9.38161e+06) (942932 -208606 -9.38161e+06) (942932 -208606 -9.38161e+06) (942932 -208606 -9.38161e+06)
1350          (942932 -208606 -9.38161e+06) (942932 -208606 -9.38161e+06) (942932 -208606 -9.38161e+06) (942932 -208606 -9.38161e+06) (942932 -208606 -9.38161e+06) (942932 -208606 -9.38161e+06) (942932 -208606 -9.38161e+06) (942932 -208606 -9.38161e+06) (942932 -208606 -9.38161e+06) (942932 -208606 -9.38161e+06) (942932 -208606 -9.38161e+06)
1400          (942932 -208606 -9.38161e+06) (942932 -208606 -9.38161e+06) (942932 -208606 -9.38161e+06) (942932 -208606 -9.38161e+06) (942932 -208606 -9.38161e+06) (942932 -208606 -9.38161e+06) (942932 -208606 -9.38161e+06) (942932 -208606 -9.38161e+06) (942932 -208606 -9.38161e+06) (942932 -208606 -9.38161e+06) (942932 -208606 -9.38161e+06)
1450          (942932 -208606 -9.38161e+06) (942932 -208606 -9.38161e+06) (942932 -208606 -9.38161e+06) (942932 -208606 -9.38161e+06) (942932 -208606 -9.38161e+06) (942932 -208606 -9.38161e+06) (942932 -208606 -9.38161e+06) (942932 -208606 -9.38161e+06) (942932 -208606 -9.38161e+06) (942932 -208606 -9.38161e+06) (942932 -208606 -9.38161e+06)
1500          (942932 -208606 -9.38161e+06) (942932 -208606 -9.38161e+06) (942932 -208606 -9.38161e+06) (942932 -208606 -9.38161e+06) (942932 -208606 -9.38161e+06) (942932 -208606 -9.38161e+06) (942932 -208606 -9.38161e+06) (942932 -208606 -9.38161e+06) (942932 -208606 -9.38161e+06) (942932 -208606 -9.38161e+06) (942932 -208606 -9.38161e+06)
1550          (942932 -208606 -9.38161e+06) (942932 -208606 -9.38161e+06) (942932 -208606 -9.38161e+06) (942932 -208606 -9.38161e+06) (942932 -208606 -9.38161e+06) (942932 -208606 -9.38161e+06) (942932 -208606 -9.38161e+06) (942932 -208606 -9.38161e+06) (942932 -208606 -9.38161e+06) (942932 -208606 -9.38161e+06) (942932 -208606 -9.38161e+06)
1600          (942932 -208606 -9.38161e+06) (942932 -208606 -9.38161e+06) (942932 -208606 -9.38161e+06) (942932 -208606 -9.38161e+06) (942932 -208606 -9.38161e+06) (942932 -208606 -9.38161e+06) (942932 -208606 -9.38161e+06) (942932 -208606 -9.38161e+06) (942932 -208606 -9.38161e+06) (942932 -208606 -9.38161e+06) (942932 -208606 -9.38161e+06)
1650          (942932 -208606 -9.38161e+06) (942932 -208606 -9.38161e+06) (942932 -208606 -9.38161e+06) (942932 -208606 -9.38161e+06) (942932 -208606 -9.38161e+06) (942932 -208606 -9.38161e+06) (942932 -208606 -9.38161e+06) (942932 -208606 -9.38161e+06) (942932 -208606 -9.38161e+06) (942932 -208606 -9.38161e+06) (942932 -208606 -9.38161e+06)
1700          (942932 -208606 -9.38161e+06) (942932 -208606 -9.38161e+06) (942932 -208606 -9.38161e+06) (942932 -208606 -9.38161e+06) (942932 -208606 -9.38161e+06) (942932 -208606 -9.38161e+06) (942932 -208606 -9.38161e+06) (942932 -208606 -9.38161e+06) (942932 -208606 -9.38161e+06) (942932 -208606 -9.38161e+06) (942932 -208606 -9.38161e+06)
1750          (942932 -208606 -9.38161e+06) (942932 -208606 -9.38161e+06) (942932 -208606 -9.38161e+06) (942932 -208606 -9.38161e+06) (942932 -208606 -9.38161e+06) (942932 -208606 -9.38161e+06) (942932 -208606 -9.38161e+06) (942932 -208606 -9.38161e+06) (942932 -208606 -9.38161e+06) (942932 -208606 -9.38161e+06) (942932 -208606 -9.38161e+06)
1800          (942932 -208606 -9.38161e+06) (942932 -208606 -9.38161e+06) (942932 -208606 -9.38161e+06) (942932 -208606 -9.38161e+06) (942932 -208606 -9.38161e+06) (942932 -208606 -9.38161e+06) (942932 -208606 -9.38161e+06) (942932 -208606 -9.38161e+06) (942932 -208606 -9.38161e+06) (942932 -208606 -9.38161e+06) (942932 -208606 -9.38161e+06)
1850          (942932 -208606 -9.38161e+06) (942932 -208606 -9.38161e+06) (942932 -208606 -9.38161e+06) (942932 -208606 -9.38161e+06) (942932 -208606 -9.38161e+06) (942932 -208606 -9.38161e+06) (942932 -208606 -9.38161e+06) (942932 -208606 -9.38161e+06) (942932 -208606 -9.38161e+06) (942932 -208606 -9.38161e+06) (942932 -208606 -9.38161e+06)
1900          (942932 -208606 -9.38161e+06) (942932 -208606 -9.38161e+06) (942932 -208606 -9.38161e+06) (942932 -208606 -9.38161e+06) (942932 -208606 -9.38161e+06) (942932 -208606 -9.38161e+06) (942932 -208606 -9.38161e+06) (942932 -208606 -9.38161e+06) (942932 -208606 -9.38161e+06) (942932 -208606 -9.38161e+06) (942932 -208606 -9.38161e+06)
1950          (942932 -208606 -9.38161e+06) (942932 -208606 -9.38161e+06) (942932 -208606 -9.38161e+06) (942932 -208606 -9.38161e+06) (942932 -208606 -9.38161e+06) (942932 -208606 -9.38161e+06) (942932 -208606 -9.38161e+06) (942932 -208606 -9.38161e+06) (942932 -208606 -9.38161e+06) (942932 -208606 -9.38161e+06) (942932 -208606 -9.38161e+06)
2000          (942932 -208606 -9.38161e+06) (942932 -208606 -9.38161e+06) (942932 -208606 -9.38161e+06) (942932 -208606 -9.38161e+06) (942932 -208606 -9.38161e+06) (942932 -208606 -9.38161e+06) (942932 -208606 -9.38161e+06) (942932 -208606 -9.38161e+06) (942932 -208606 -9.38161e+06) (942932 -208606 -9.38161e+06) (942932 -208606 -9.38161e+06)
2050          (942932 -208606 -9.38161e+06) (942932 -208606 -9.38161e+06) (942932 -208606 -9.38161e+06) (942932 -208606 -9.38161e+06) (942932 -208606 -9.38161e+06) (942932 -208606 -9.38161e+06) (942932 -208606 -9.38161e+06) (942932 -208606 -9.38161e+06) (942932 -208606 -9.38161e+06) (942932 -208606 -9.38161e+06) (942932 -208606 -9.38161e+06)
2100          (942932 -208606 -9.38161e+06) (942932 -208606 -9.38161e+06) (942932 -208606 -9.38161e+06) (942932 -208606 -9.38161e+06) (942932 -208606 -9.38161e+06) (942932 -208606 -9.38161e+06) (942932 -208606 -9.38161e+06) (942932 -208606 -9.38161e+06) (942932 -208606 -9.38161e+06) (942932 -208606 -9.38161e+06) (942932 -208606 -9.38161e+06)
2150          (942932 -208606 -9.38161e+06) (942932 -208606 -9.38161e+06) (942932 -208606 -9.38161e+06) (942932 -208606 -9.38161e+06) (942932 -208606 -9.38161e+06) (942932 -208606 -9.38161e+06) (942932 -208606 -9.38161e+06) (942932 -208606 -9.38161e+06) (942932 -208606 -9.38161e+06) (942932 -208606 -9.38161e+06) (942932 -208606 -9.38161e+06)
2200          (942932 -208606 -9.38161e+06) (942932 -208606 -9.38161e+06) (942932 -208606 -9.38161e+06) (942932 -208606 -9.38161e+06) (942932 -208606 -9.38161e+06) (942932 -208606 -9.38161e+06) (942932 -208606 -9.38161e+06) (942932 -208606 -9.38161e+06) (942932 -208606 -9.38161e+06) (942932 -208606 -9.38161e+06) (942932 -208606 -9.38161e+06)
2250          (942932 -208606 -9.38161e+06) (942932 -208606 -9.38161e+06) (942932 -208606 -9.38161e+06) (942932 -208606 -9.38161e+06) (942932 -208606 -9.38161e+06) (942932 -208606 -9.38161e+06) (942932 -208606 -9.38161e+06) (942932 -208606 -9.38161e+06) (942932 -208606 -9.38161e+06) (942932 -208606 -9.38161e+06) (942932 -208606 -9.38161e+06)
2300          (942932 -208606 -9.38161e+06) (942932 -208606 -9.38161e+06) (942932 -208606 -9.38161e+06) (942932 -208606 -9.38161e+06) (942932 -208606 -9.38161e+06) (942932 -208606 -9.38161e+06) (942932 -208606 -9.38161e+06) (942932 -208606 -9.38161e+06) (942932 -208606 -9.38161e+06) (942932 -208606 -9.38161e+06) (942932 -208606 -9.38161e+06)
2350          (942932 -208606 -9.38161e+06) (942932 -208606 -9.38161e+06) (942932 -208606 -9.38161e+06) (942932 -208606 -9.38161e+06) (942932 -208606 -9.38161e+06) (942932 -208606 -9.38161e+06) (942932 -208606 -9.38161e+06) (942932 -208606 -9.38161e+06) (942932 -208606 -9.38161e+06) (942932 -208606 -9.38161e+06) (942932 -208606 -9.38161e+06)
2400          (942932 -208606 -9.38161e+06) (942932 -208606 -9.38161e+06) (942932 -208606 -9.38161e+06) (942932 -208606 -9.38161e+06) (942932 -208606 -9.38161e+06) (942932 -208606 -9.38161e+06) (942932 -208606 -9.38161e+06) (942932 -208606 -9.38161e+06) (942932 -208606 -9.38161e+06) (942932 -208606 -9.38161e+06) (942932 -208606 -9.38161e+06)
2450          (942932 -208606 -9.38161e+06) (942932 -208606 -9.38161e+06) (942932 -208606 -9.38161e+06) (942932 -208606 -9.38161e+06) (942932 -208606 -9.38161e+06) (942932 -208606 -9.38161e+06) (942932 -208606 -9.38161e+06) (942932 -208606 -9.38161e+06) (942932 -208606 -9.38161e+06) (942932 -208606 -9.38161e+06) (942932 -208606 -9.38161e+06)
2500          (942932 -208606 -9.38161e+06) (942932 -208606 -9.38161e+06) (942932 -208606 -9.38161e+06) (942932 -208606 -9.38161e+06) (942932 -208606 -9.38161e+06) (942932 -208606 -9.38161e+06) (942932 -208606 -9.38161e+06) (942932 -208606 -9.38161e+06) (942932 -208606 -9.38161e+06) (942932 -208606 -9.38161e+06) (942932 -208606 -9.38161e+06)
2550          (942932 -208606 -9.38161e+06) (942932 -208606 -9.38161e+06) (942932 -208606 -9.38161e+06) (942932 -208606 -9.38161e+06) (942932 -208606 -9.38161e+06) (942932 -208606 -9.38161e+06) (942932 -208606 -9.38161e+06) (942932 -208606 -9.38161e+06) (942932 -208606 -9.38161e+06) (942932 -208606 -9.38161e+06) (942932 -208606 -9.38161e+06)
2600          (942932 -208606 -9.38161e+06) (942932 -208606 -9.38161e+06) (942932 -208606 -9.38161e+06) (942932 -208606 -9.38161e+06) (942932 -208606 -9.38161e+06) (942932 -208606 -9.38161e+06) (942932 -208606 -9.38161e+06) (942932 -208606 -9.38161e+06) (942932 -208606 -9.38161e+06) (942932 -208606 -9.38161e+06) (942932 -208606 -9.38161e+06)
2650          (942932 -208606 -9.38161e+06) (942932 -208606 -9.38161e+06) (942932 -208606 -9.38161e+06) (942932 -208606 -9.38161e+06) (942932 -208606 -9.38161e+06) (942932 -208606 -9.38161e+06) (942932 -208606 -9.38161e+06) (942932 -208606 -9.38161e+06) (942932 -208606 -9.38161e+06) (942932 -208606 -9.38161e+06) (942932 -208606 -9.38161e+06)
2700          (942932 -208606 -9.38161e+06) (942932 -208606 -9.38161e+06) (942932 -208606 -9.38161e+06) (942932 -208606 -9.38161e+06) (942932 -208606 -9.38161e+06) (942932 -208606 -9.38161e+06) (942932 -208606 -9.38161e+06) (942932 -208606 -9.38161e+06) (942932 -208606 -9.38161e+06) (942932 -208606 -9.38161e+06) (942932 -208606 -9.38161e+06)
2750          (942932 -208606 -9.38161e+06) (942932 -208606 -9.38161e+06) (942932 -208606 -9.38161e+06) (942932 -208606 -9.38161e+06) (942932 -208606 -9.38161e+06) (942932 -208606 -9.38161e+06) (942932 -208606 -9.38161e+06) (942932 -208606 -9.38161e+06) (942932 -208606 -9.38161e+06) (942932 -208606 -9.38161e+06) (942932 -208606 -9.38161e+06)
2800          (942932 -208606 -9.38161e+06) (942932 -208606 -9.38161e+06) (942932 -208606 -9.38161e+06) (942932 -208606 -9.38161e+06) (942932 -208606 -9.38161e+06) (942932 -208606 -9.38161e+06) (942932 -208606 -9.38161e+06) (942932 -208606 -9.38161e+06) (942932 -208606 -9.38161e+06) (942932 -208606 -9.38161e+06) (942932 -208606 -9.38161e+06)
2850          (942932 -208606 -9.38161e+06) (942932 -208606 -9.38161e+06) (942932 -208606 -9.38161e+06) (942932 -208606 -9.38161e+06) (942932 -208606 -9.38161e+06) (942932 -208606 -9.38161e+06) (942932 -208606 -9.38161e+06) (942932 -208606 -9.38161e+06) (942932 -208606 -9.38161e+06) (942932 -208606 -9.38161e+06) (942932 -208606 -9.38161e+06)
2900          (942932 -208606 -9.38161e+06) (942932 -208606 -9.38161e+06) (942932 -208606 -9.38161e+06) (942932 -208606 -9.38161e+06) (942932 -208606 -9.38161e+06) (942932 -208606 -9.38161e+06) (942932 -208606 -9.38161e+06) (942932 -208606 -9.38161e+06) (942932 -208606 -9.38161e+06) (942932 -208606 -9.38161e+06) (942932 -208606 -9.38161e+06)
2950          (942932 -208606 -9.38161e+06) (942932 -208606 -9.38161e+06) (942932 -208606 -9.38161e+06) (942932 -208606 -9.38161e+06) (942932 -208606 -9.38161e+06) (942932 -208606 -9.38161e+06) (942932 -208606 -9.38161e+06) (942932 -208606 -9.38161e+06) (942932 -208606 -9.38161e+06) (942932 -208606 -9.38161e+06) (942932 -208606 -9.38161e+06)
3000          (942932 -208606 -9.38161e+06) (942932 -208606 -9.38161e+06) (942932 -208606 -9.38161e+06) (942932 -208606 -9.38161e+06) (942932 -208606 -9.38161e+06) (942932 -208606 -9.38161e+06) (942932 -208606 -9.38161e+06) (942932 -208606 -9.38161e+06) (942932 -208606 -9.38161e+06) (942932 -208606 -9.38161e+06) (942932 -208606 -9.38161e+06)
3050          (942932 -208606 -9.38161e+06) (942932 -208606 -9.38161e+06) (942932 -208606 -9.38161e+06) (942932 -208606 -9.38161e+06) (942932 -208606 -9.38161e+06) (942932 -208606 -9.38161e+06) (942932 -208606 -9.38161e+06) (942932 -208606 -9.38161e+06) (942932 -208606 -9.38161e+06) (942932 -208606 -9.38161e+06) (942932 -208606 -9.38161e+06)
3100          (942932 -208606 -9.38161e+06) (942932 -208606 -9.38161e+06) (942932 -208606 -9.38161e+06) (942932 -208606 -9.38161e+06) (942932 -208606 -9.38161e+06) (942932 -208606 -9.38161e+06) (942932 -208606 -9.38161e+06) (942932 -208606 -9.38161e+06) (942932 -208606 -9.38161e+06) (942932 -208606 -9.38161e+06) (942932 -208606 -9.38161e+06)
3150          (942932 -208606 -9.38161e+06) (942932 -208606 -9.38161e+06) (942932 -208606 -9.38161e+06) (942932 -208606 -9.38161e+06) (942932 -208606 -9.38161e+06) (942932 -208606 -9.38161e+06) (942932 -208606 -9.38161e+06) (942932 -208606 -9.38161e+06) (942932 -208606 -9.38161e+06) (942932 -208606 -9.38161e+06) (942932 -208606 -9.38161e+06)
3200          (942932 -208606 -9.38161e+06) (942932 -208606 -9.38161e+06) (942932 -208606 -9.38161e+06) (942932 -208606 -9.38161e+06) (942932 -208606 -9.38161e+06) (942932 -208606 -9.38161e+06) (942932 -208606 -9.38161e+06) (942932 -208606 -9.38161e+06) (942932 -208606 -9.38161e+06) (942932 -208606 -9.38161e+06) (942932 -208606 -9.38161e+06)
3250          (942932 -208606 -9.38161e+06) (942932 -208606 -9.38161e+06) (942932 -208606 -9.38161e+06) (942932 -208606 -9.38161e+06) (942932 -208606 -9.38161e+06) (942932 -208606 -9.38161e+06) (942932 -208606 -9.38161e+06) (942932 -208606 -9.38161e+06) (942932 -208606 -9.38161e+06) (942932 -208606 -9.38161e+06) (942932 -208606 -9.38161e+06)
3300          (942932 -208606 -9.38161e+06) (942932 -208606 -9.38161e+06) (942932 -208606 -9.38161e+06) (942932 -208606 -9.38161e+06) (942932 -208606 -9.38161e+06) (942932 -208606 -9.38161e+06) (942932 -208606 -9.38161e+06) (942932 -208606 -9.38161e+06) (942932 -208606 -9.38161e+06) (942932 -208606 -9.38161e+06) (942932 -208606 -9.38161e+06)
3350          (942932 -208606 -9.38161e+06) (942932 -208606 -9.38161e+06) (942932 -208606 -9.38161e+06) (942932 -208606 -9.38161e+06) (942932 -208606 -9.38161e+06) (942932 -208606 -9.38161e+06) (942932 -208606 -9.38161e+06) (942932 -208606 -9.38161e+06) (942932 -208606 -9.38161e+06) (942932 -208606 -9.38161e+06) (942932 -208606 -9.38161e+06)
3400          (942932 -208606 -9.38161e+06) (942932 -208606 -9.38161e+06) (942932 -208606 -9.38161e+06) (942932 -208606 -9.38161e+06) (942932 -208606 -9.38161e+06) (942932 -208606 -9.38161e+06) (942932 -208606 -9.38161e+06) (942932 -208606 -9.38161e+06) (942932 -208606 -9.38161e+06) (942932 -208606 -9.38161e+06) (942932 -208606 -9.38161e+06)
3450          (942932 -208606 -9.38161e+06) (942932 -208606 -9.38161e+06) (942932 -208606 -9.38161e+06) (942932 -208606 -9.38161e+06) (942932 -208606 -9.38161e+06) (942932 -208606 -9.38161e+06) (942932 -208606 -9.38161e+06) (942932 -208606 -9.38161e+06) (942932 -208606 -9.38161e+06) (942932 -208606 -9.38161e+06) (942932 -208606 -9.38161e+06)
3500          (942932 -208606 -9.38161e+06) (942932 -208606 -9.38161e+06) (942932 -208606 -9.38161e+06) (942932 -208606 -9.38161e+06) (942932 -208606 -9.38161e+06) (942932 -208606 -9.38161e+06) (942932 -208606 -9.38161e+06) (942932 -208606 -9.38161e+06) (942932 -208606 -9.38161e+06) (942932 -208606 -9.38161e+06) (942932 -208606 -9.38161e+06)
3550          (942932 -208606 -9.38161e+06) (942932 -208606 -9.38161e+06) (942932 -208606 -9.38161e+06) (942932 -208606 -9.38161e+06) (942932 -208606 -9.38161e+06) (942932 -208606 -9.38161e+06) (942932 -208606 -9.38161e+06) (942932 -208606 -9.38161e+06) (942932 -208606 -9.38161e+06) (942932 -208606 -9.38161e+06) (942932 -208606 -9.38161e+06)
3600          (942932 -208606 -9.38161e+06) (942932 -208606 -9.38161e+06) (942932 -208606 -9.38161e+06) (942932 -208606 -9.38161e+06) (942932 -208606 -9.38161e+06) (942932 -208606 -9.38161e+06) (942932 -208606 -9.38161e+06) (942932 -208606 -9.38161e+06) (942932 -208606 -9.38161e+06) (942932 -208606 -9.38161e+06) (942932 -208606 -9.38161e+06)
3650          (942932 -208606 -9.38161e+06) (942932 -208606 -9.38161e+06) (942932 -208606 -9.38161e+06) (942932 -208606 -9.38161e+06) (942932 -208606 -9.38161e+06) (942932 -208606 -9.38161e+06) (942932 -208606 -9.38161e+06) (942932 -208606 -9.38161e+06) (942932 -208606 -9.38161e+06) (942932 -208606 -9.38161e+06) (942932 -208606 -9.38161e+06)
3700          (942932 -208606 -9.38161e+06) (942932 -208606 -9.38161e+06) (942932 -208606 -9.38161e+06) (942932 -208606 -9.38161e+06) (942932 -208606 -9.38161e+06) (942932 -208606 -9.38161e+06) (942932 -208606 -9.38161e+06) (942932 -208606 -9.38161e+06) (942932 -208606 -9.38161e+06) (942932 -208606 -9.38161e+06) (942932 -208606 -9.38161e+06)
3750          (942932 -208606 -9.38161e+06) (942932 -208606 -9.38161e+06) (942932 -208606 -9.38161e+06) (942932 -208606 -9.38161e+06) (942932 -208606 -9.38161e+06) (942932 -208606 -9.38161e+06) (942932 -208606 -9.38161e+06) (942932 -208606 -9.38161e+06) (942932 -208606 -9.38161e+06) (942932 -208606 -9.38161e+06) (942932 -208606 -9.38161e+06)
3800          (942932 -208606 -9.38161e+06) (942932 -208606 -9.38161e+06) (942932 -208606 -9.38161e+06) (942932 -208606 -9.38161e+06) (942932 -208606 -9.38161e+06) (942932 -208606 -9.38161e+06) (942932 -208606 -9.38161e+06) (942932 -208606 -9.38161e+06) (942932 -208606 -9.38161e+06) (942932 -208606 -9.38161e+06) (942932 -208606 -9.38161e+06)
3850          (942932 -208606 -9.38161e+06) (942932 -208606 -9.38161e+06) (942932 -208606 -9.38161e+06) (942932 -208606 -9.38161e+06) (942932 -208606 -9.38161e+06) (942932 -208606 -9.38161e+06) (942932 -208606 -9.38161e+06) (942932 -208606 -9.38161e+06) (942932 -208606 -9.38161e+06) (942932 -208606 -9.38161e+06) (942932 -208606 -9.38161e+06)
3900          (942932 -208606 -9.38161e+06) (942932 -208606 -9.38161e+06) (942932 -208606 -9.38161e+06) (942932 -208606 -9.38161e+06) (942932 -208606 -9.38161e+06) (942932 -208606 -9.38161e+06) (942932 -208606 -9.38161e+06) (942932 -208606 -9.38161e+06) (942932 -208606 -9.38161e+06) (942932 -208606 -9.38161e+06) (942932 -208606 -9.38161e+06)
3950          (942932 -208606 -9.38161e+06) (942932 -208606 -9.38161e+06) (942932 -208606 -9.38161e+06) (942932 -208606 -9.38161e+06) (942932 -208606 -9.38161e+06) (942932 -208606 -9.38161e+06) (942932 -208606 -9.38161e+06) (942932 -208606 -9.38161e+06) (942932 -208606 -9.38161e+06) (942932 -208606 -9.38161e+06) (942932 -208606 -9.38161e+06)
4000          (942932 -208606 -9.38161e+06) (942932 -208606 -9.38161e+06) (942932 -208606 -9.38161e+06) (942932 -208606 -9.38161e+06) (942932 -208606 -9.38161e+06) (942932 -208606 -9.38161e+06) (942932 -208606 -9.38161e+06) (942932 -208606 -9.38161e+06) (942932 -208606 -9.38161e+06) (942932 -208606 -9.38161e+06) (942932 -208606 -9.38161e+06)
4050          (942932 -208606 -9.38161e+06) (942932 -208606 -9.38161e+06) (942932 -208606 -9.38161e+06) (942932 -208606 -9.38161e+06) (942932 -208606 -9.38161e+06) (942932 -208606 -9.38161e+06) (942932 -208606 -9.38161e+06) (942932 -208606 -9.38161e+06) (942932 -208606 -9.38161e+06) (942932 -208606 -9.38161e+06) (942932 -208606 -9.38161e+06)
4100          (942932 -208606 -9.38161e+06) (942932 -208606 -9.38161e+06) (942932 -208606 -9.38161e+06) (942932 -208606 -9.38161e+06) (942932 -208606 -9.38161e+06) (942932 -208606 -9.38161e+06) (942932 -208606 -9.38161e+06) (942932 -208606 -9.38161e+06) (942932 -208606 -9.38161e+06) (942932 -208606 -9.38161e+06) (942932 -208606 -9.38161e+06)
4150          (942932 -208606 -9.38161e+06) (942932 -208606 -9.38161e+06) (942932 -208606 -9.38161e+06) (942932 -208606 -9.38161e+06) (942932 -208606 -9.38161e+06) (942932 -208606 -9.38161e+06) (942932 -208606 -9.38161e+06) (942932 -208606 -9.38161e+06) (942932 -208606 -9.38161e+06) (942932 -208606 -9.38161e+06) (942932 -208606 -9.38161e+06)
4200          (942932 -208606 -9.38161e+06) (942932 -208606 -9.38161e+06) (942932 -208606 -9.38161e+06) (942932 -208606 -9.38161e+06) (942932 -208606 -9.38161e+06) (942932 -208606 -9.38161e+06) (942932 -208606 -9.38161e+06) (942932 -208606 -9.38161e+06) (942932 -208606 -9.38161e+06) (942932 -208606 -9.38161e+06) (942932 -208606 -9.38161e+06)
4250          (942932 -208606 -9.38161e+06) (942932 -208606 -9.38161e+06) (942932 -208606 -9.38161e+06) (942932 -208606 -9.38161e+06) (942932 -208606 -9.38161e+06) (942932 -208606 -9.38161e+06) (942932 -208606 -9.38161e+06) (942932 -208606 -9.38161e+06) (942932 -208606 -9.38161e+06) (942932 -208606 -9.38161e+06) (942932 -208606 -9.38161e+06)