# Probe 0 (0.0015 0.0015 0)
# Probe 1 (0.0015 0.0015 0.002)
# Probe 2 (0.0015 0.0015 0.004)
# Probe 3 (0.0015 0.0015 0.006)
# Probe 4 (0.0015 0.0015 0.008)
# Probe 5 (0.0015 0.0015 0.01)
# Probe 6 (0.0015 0.0015 0.012)
# Probe 7 (0.0015 0.0015 0.014)
# Probe 8 (0.0015 0.0015 0.016)
# Probe 9 (0.0015 0.0015 0.018)
# Probe 10 (0.0015 0.0015 0.02)
# Time        0             1             2             3             4             5             6             7             8             9             10           
50            100000        100000        100000        100000        100000        100000        100000        100000        100000        100000        100000       
100           100000        100000        100000        100000        100000        100000        100000        100000        100000        100000        100000       
150           100000        100000        100000        100000        100000        100000        100000        100000        100000        100000        100000       
200           99999.8       99999.8       99999.8       99999.8       99999.8       99999.8       99999.8       99999.8       99999.8       99999.8       99999.8      
250           99999.9       99999.9       99999.9       99999.9       99999.9       99999.9       99999.9       99999.9       99999.9       99999.9       99999.9      
300           99998.5       99998.5       99998.5       99998.5       99998.5       99998.5       99998.5       99998.5       99998.5       99998.5       99998.5      
350           100000        100000        100000        100000        100000        100000        100000        100000        100000        100000        100000       
400           99999.2       99999.2       99999.2       99999.2       99999.2       99999.2       99999.2       99999.2       99999.2       99999.2       99999.2      
450           100000        100000        100000        100000        100000        100000        100000        100000        100000        100000        100000       
500           99999.9       99999.9       99999.9       99999.9       99999.9       99999.9       99999.9       99999.9       99999.9       99999.9       99999.9      
550           99999.9       99999.9       99999.9       99999.9       99999.9       99999.9       99999.9       99999.9       99999.9       99999.9       99999.9      
600           99998.9       99998.9       99998.9       99998.9       99998.9       99998.9       99998.9       99998.9       99998.9       99998.9       99998.9      
650           99999.3       99999.3       99999.3       99999.3       99999.3       99999.3       99999.3       99999.3       99999.3       99999.3       99999.3      
700           100000        100000        100000        100000        100000        100000        100000        100000        100000        100000        100000       
750           100000        100000        100000        100000        100000        100000        100000        100000        100000        100000        100000       
800           100000        100000        100000        100000        100000        100000        100000        100000        100000        100000        100000       
850           100001        100001        100001        100001        100001        100001        100001        100001        100001        100001        100001       
900           99999.8       99999.8       99999.8       99999.8       99999.8       99999.8       99999.8       99999.8       99999.8       99999.8       99999.8      
950           99999.9       99999.9       99999.9       99999.9       99999.9       99999.9       99999.9       99999.9       99999.9       99999.9       99999.9      
1000          99999.3       99999.3       99999.3       99999.3       99999.3       99999.3       99999.3       99999.3       99999.3       99999.3       99999.3      
1050          100000        100000        100000        100000        100000        100000        100000        100000        100000        100000        100000       
1100          99999.9       99999.9       99999.9       99999.9       99999.9       99999.9       99999.9       99999.9       99999.9       99999.9       99999.9      
1150          100000        100000        100000        100000        100000        100000        100000        100000        100000        100000        100000       
1200          100000        100000        100000        100000        100000        100000        100000        100000        100000        100000        100000       
1250          99999.9       99999.9       99999.9       99999.9       99999.9       99999.9       99999.9       99999.9       99999.9       99999.9       99999.9      
1300          99999.6       99999.6       99999.6       99999.6       99999.6       99999.6       99999.6       99999.6       99999.6       99999.6       99999.6      
1350          99999.8       99999.8       99999.8       99999.8       99999.8       99999.8       99999.8       99999.8       99999.8       99999.8       99999.8      
1400          99999.9       99999.9       99999.9       99999.9       99999.9       99999.9       99999.9       99999.9       99999.9       99999.9       99999.9      
1450          100000        100000        100000        100000        100000        100000        100000        100000        100000        100000        100000       
1500          100000        100000        100000        100000        100000        100000        100000        100000        100000        100000        100000       
1550          99999.9       99999.9       99999.9       99999.9       99999.9       99999.9       99999.9       99999.9       99999.9       99999.9       99999.9      
1600          99999.2       99999.2       99999.2       99999.2       99999.2       99999.2       99999.2       99999.2       99999.2       99999.2       99999.2      
1650          99999.9       99999.9       99999.9       99999.9       99999.9       99999.9       99999.9       99999.9       99999.9       99999.9       99999.9      
1700          100000        100000        100000        100000        100000        100000        100000        100000        100000        100000        100000       
1750          100000        100000        100000        100000        100000        100000        100000        100000        100000        100000        100000       
1800          99999.7       99999.7       99999.7       99999.7       99999.7       99999.7       99999.7       99999.7       99999.7       99999.7       99999.7      
1850          100001        100001        100001        100001        100001        100001        100001        100001        100001        100001        100001       
1900          100000        100000        100000        100000        100000        100000        100000        100000        100000        100000        100000       
1950          100000        100000        100000        100000        100000        100000        100000        100000        100000        100000        100000       
2000          100000        100000        100000        100000        100000        100000        100000        100000        100000        100000        100000       
2050          100001        100001        100001        100001        100001        100001        100001        100001        100001        100001        100001       
2100          99999.9       99999.9       99999.9       99999.9       99999.9       99999.9       99999.9       99999.9       99999.9       99999.9       99999.9      
2150          99999.5       99999.5       99999.5       99999.5       99999.5       99999.5       99999.5       99999.5       99999.5       99999.5       99999.5      
2200          99999.2       99999.2       99999.2       99999.2       99999.2       99999.2       99999.2       99999.2       99999.2       99999.2       99999.2      
2250          99999.8       99999.8       99999.8       99999.8       99999.8       99999.8       99999.8       99999.8       99999.8       99999.8       99999.8      
2300          99999.2       99999.2       99999.2       99999.2       99999.2       99999.2       99999.2       99999.2       99999.2       99999.2       99999.2      
2350          99999.6       99999.6       99999.6       99999.6       99999.6       99999.6       99999.6       99999.6       99999.6       99999.6       99999.6      
2400          99999.9       99999.9       99999.9       99999.9       99999.9       99999.9       99999.9       99999.9       99999.9       99999.9       99999.9      
2450          100001        100001        100001        100001        100001        100001        100001        100001        100001        100001        100001       
2500          100000        100000        100000        100000        100000        100000        100000        100000        100000        100000        100000       
2550          99999.8       99999.8       99999.8       99999.8       99999.8       99999.8       99999.8       99999.8       99999.8       99999.8       99999.8      
2600          99999.8       99999.8       99999.8       99999.8       99999.8       99999.8       99999.8       99999.8       99999.8       99999.8       99999.8      
2650          99999.8       99999.8       99999.8       99999.8       99999.8       99999.8       99999.8       99999.8       99999.8       99999.8       99999.8      
2700          99999.1       99999.1       99999.1       99999.1       99999.1       99999.1       99999.1       99999.1       99999.1       99999.1       99999.1      
2750          100000        100000        100000        100000        100000        100000        100000        100000        100000        100000        100000       
2800          99999.3       99999.3       99999.3       99999.3       99999.3       99999.3       99999.3       99999.3       99999.3       99999.3       99999.3      
2850          100000        100000        100000        100000        100000        100000        100000        100000        100000        100000        100000       
2900          100000        100000        100000        100000        100000        100000        100000        100000        100000        100000        100000       
2950          99999.9       99999.9       99999.9       99999.9       99999.9       99999.9       99999.9       99999.9       99999.9       99999.9       99999.9      
3000          99999.1       99999.1       99999.1       99999.1       99999.1       99999.1       99999.1       99999.1       99999.1       99999.1       99999.1      
3050          99999         99999         99999         99999         99999         99999         99999         99999         99999         99999         99999        
3100          99999.8       99999.8       99999.8       99999.8       99999.8       99999.8       99999.8       99999.8       99999.8       99999.8       99999.8      
3150          100000        100000        100000        100000        100000        100000        100000        100000        100000        100000        100000       
3200          99999.9       99999.9       99999.9       99999.9       99999.9       99999.9       99999.9       99999.9       99999.9       99999.9       99999.9      
3250          99999.3       99999.3       99999.3       99999.3       99999.3       99999.3       99999.3       99999.3       99999.3       99999.3       99999.3      
3300          100001        100001        100001        100001        100001        100001        100001        100001        100001        100001        100001       
3350          99999.9       99999.9       99999.9       99999.9       99999.9       99999.9       99999.9       99999.9       99999.9       99999.9       99999.9      
3400          100000        100000        100000        100000        100000        100000        100000        100000        100000        100000        100000       
3450          100001        100001        100001        100001        100001        100001        100001        100001        100001        100001        100001       
3500          100000        100000        100000        100000        100000        100000        100000        100000        100000        100000        100000       
3550          100000        100000        100000        100000        100000        100000        100000        100000        100000        100000        100000       
3600          100001        100001        100001        100001        100001        100001        100001        100001        100001        100001        100001       
3650          99999         99999         99999         99999         99999         99999         99999         99999         99999         99999         99999        
3700          100001        100001        100001        100001        100001        100001        100001        100001        100001        100001        100001       
3750          100001        100001        100001        100001        100001        100001        100001        100001        100001        100001        100001       
3800          100000        100000        100000        100000        100000        100000        100000        100000        100000        100000        100000       
3850          99999.3       99999.3       99999.3       99999.3       99999.3       99999.3       99999.3       99999.3       99999.3       99999.3       99999.3      
3900          99999.9       99999.9       99999.9       99999.9       99999.9       99999.9       99999.9       99999.9       99999.9       99999.9       99999.9      
3950          100001        100001        100001        100001        100001        100001        100001        100001        100001        100001        100001       
4000          100000        100000        100000        100000        100000        100000        100000        100000        100000        100000        100000       
4050          100001        100001        100001        100001        100001        100001        100001        100001        100001        100001        100001       
4100          100000        100000        100000        100000        100000        100000        100000        100000        100000        100000        100000       
4150          100000        100000        100000        100000        100000        100000        100000        100000        100000        100000        100000       
4200          100001        100001        100001        100001        100001        100001        100001        100001        100001        100001        100001       
4250          100001        100001        100001        100001        100001        100001        100001        100001        100001        100001        100001       
4300          100000        100000        100000        100000        100000        100000        100000        100000        100000        100000        100000       
4350          100000        100000        100000        100000        100000        100000        100000        100000        100000        100000        100000       
4400          100001        100001        100001        100001        100001        100001        100001        100001        100001        100001        100001       
4450          99999.9       99999.9       99999.9       99999.9       99999.9       99999.9       99999.9       99999.9       99999.9       99999.9       99999.9      
4500          99998.7       99998.7       99998.7       99998.7       99998.7       99998.7       99998.7       99998.7       99998.7       99998.7       99998.7      
4550          100000        100000        100000        100000        100000        100000        100000        100000        100000        100000        100000       
4600          100000        100000        100000        100000        100000        100000        100000        100000        100000        100000        100000       
4650          99999.3       99999.3       99999.3       99999.3       99999.3       99999.3       99999.3       99999.3       99999.3       99999.3       99999.3      
4700          100000        100000        100000        100000        100000        100000        100000        100000        100000        100000        100000       
4750          100000        100000        100000        100000        100000        100000        100000        100000        100000        100000        100000       
4800          99999         99999         99999         99999         99999         99999         99999         99999         99999         99999         99999        
4850          99999.7       99999.7       99999.7       99999.7       99999.7       99999.7       99999.7       99999.7       99999.7       99999.7       99999.7      
4900          100000        100000        100000        100000        100000        100000        100000        100000        100000        100000        100000       
4950          100001        100001        100001        100001        100001        100001        100001        100001        100001        100001        100001       
5000          99999         99999         99999         99999         99999         99999         99999         99999         99999         99999         99999        
