# Probe 0 (0.0015 0.0015 0)
# Probe 1 (0.0015 0.0015 0.002)
# Probe 2 (0.0015 0.0015 0.004)
# Probe 3 (0.0015 0.0015 0.006)
# Probe 4 (0.0015 0.0015 0.008)
# Probe 5 (0.0015 0.0015 0.01)
# Probe 6 (0.0015 0.0015 0.012)
# Probe 7 (0.0015 0.0015 0.014)
# Probe 8 (0.0015 0.0015 0.016)
# Probe 9 (0.0015 0.0015 0.018)
# Probe 10 (0.0015 0.0015 0.02)
# Time        0             1             2             3             4             5             6             7             8             9             10           
50            499.972       499.972       499.972       499.972       499.972       499.972       499.972       499.972       499.972       499.972       499.972      
100           499.972       499.972       499.972       499.972       499.972       499.972       499.972       499.972       499.972       499.972       499.972      
150           499.968       499.968       499.968       499.968       499.968       499.968       499.968       499.968       499.968       499.968       499.968      
200           499.979       499.979       499.979       499.979       499.979       499.979       499.979       499.979       499.979       499.979       499.979      
250           499.971       499.971       499.971       499.971       499.971       499.971       499.971       499.971       499.971       499.971       499.971      
300           499.955       499.955       499.955       499.955       499.955       499.955       499.955       499.955       499.955       499.955       499.955      
350           499.98        499.98        499.98        499.98        499.98        499.98        499.98        499.98        499.98        499.98        499.98       
400           499.98        499.98        499.98        499.98        499.98        499.98        499.98        499.98        499.98        499.98        499.98       
450           499.964       499.964       499.964       499.964       499.964       499.964       499.964       499.964       499.964       499.964       499.964      
500           499.987       499.987       499.987       499.987       499.987       499.987       499.987       499.987       499.987       499.987       499.987      
550           499.984       499.984       499.984       499.984       499.984       499.984       499.984       499.984       499.984       499.984       499.984      
600           499.968       499.968       499.968       499.968       499.968       499.968       499.968       499.968       499.968       499.968       499.968      
650           499.984       499.984       499.984       499.984       499.984       499.984       499.984       499.984       499.984       499.984       499.984      
700           499.962       499.962       499.962       499.962       499.962       499.962       499.962       499.962       499.962       499.962       499.962      
750           499.956       499.956       499.956       499.956       499.956       499.956       499.956       499.956       499.956       499.956       499.956      
800           499.976       499.976       499.976       499.976       499.976       499.976       499.976       499.976       499.976       499.976       499.976      
850           499.952       499.952       499.952       499.952       499.952       499.952       499.952       499.952       499.952       499.952       499.952      
900           499.988       499.988       499.988       499.988       499.988       499.988       499.988       499.988       499.988       499.988       499.988      
950           499.973       499.973       499.973       499.973       499.973       499.973       499.973       499.973       499.973       499.973       499.973      
1000          499.981       499.981       499.981       499.981       499.981       499.981       499.981       499.981       499.981       499.981       499.981      
1050          499.97        499.97        499.97        499.97        499.97        499.97        499.97        499.97        499.97        499.97        499.97       
1100          499.981       499.981       499.981       499.981       499.981       499.981       499.981       499.981       499.981       499.981       499.981      
1150          499.97        499.97        499.97        499.97        499.97        499.97        499.97        499.97        499.97        499.97        499.97       
1200          499.965       499.965       499.965       499.965       499.965       499.965       499.965       499.965       499.965       499.965       499.965      
1250          499.984       499.984       499.984       499.984       499.984       499.984       499.984       499.984       499.984       499.984       499.984      
1300          499.985       499.985       499.985       499.985       499.985       499.985       499.985       499.985       499.985       499.985       499.985      
1350          499.988       499.988       499.988       499.988       499.988       499.988       499.988       499.988       499.988       499.988       499.988      
1400          499.982       499.982       499.982       499.982       499.982       499.982       499.982       499.982       499.982       499.982       499.982      
1450          499.978       499.978       499.978       499.978       499.978       499.978       499.978       499.978       499.978       499.978       499.978      
1500          499.979       499.979       499.979       499.979       499.979       499.979       499.979       499.979       499.979       499.979       499.979      
1550          499.97        499.97        499.97        499.97        499.97        499.97        499.97        499.97        499.97        499.97        499.97       
1600          499.977       499.977       499.977       499.977       499.977       499.977       499.977       499.977       499.977       499.977       499.977      
1650          499.969       499.969       499.969       499.969       499.969       499.969       499.969       499.969       499.969       499.969       499.969      
1700          499.989       499.989       499.989       499.989       499.989       499.989       499.989       499.989       499.989       499.989       499.989      
1750          499.964       499.964       499.964       499.964       499.964       499.964       499.964       499.964       499.964       499.964       499.964      
1800          499.983       499.983       499.983       499.983       499.983       499.983       499.983       499.983       499.983       499.983       499.983      
1850          499.962       499.962       499.962       499.962       499.962       499.962       499.962       499.962       499.962       499.962       499.962      
1900          499.961       499.961       499.961       499.961       499.961       499.961       499.961       499.961       499.961       499.961       499.961      
1950          499.968       499.968       499.968       499.968       499.968       499.968       499.968       499.968       499.968       499.968       499.968      
2000          499.979       499.979       499.979       499.979       499.979       499.979       499.979       499.979       499.979       499.979       499.979      
2050          499.962       499.962       499.962       499.962       499.962       499.962       499.962       499.962       499.962       499.962       499.962      
2100          499.987       499.987       499.987       499.987       499.987       499.987       499.987       499.987       499.987       499.987       499.987      
2150          499.986       499.986       499.986       499.986       499.986       499.986       499.986       499.986       499.986       499.986       499.986      
2200          499.982       499.982       499.982       499.982       499.982       499.982       499.982       499.982       499.982       499.982       499.982      
2250          499.988       499.988       499.988       499.988       499.988       499.988       499.988       499.988       499.988       499.988       499.988      
2300          499.98        499.98        499.98        499.98        499.98        499.98        499.98        499.98        499.98        499.98        499.98       
2350          499.982       499.982       499.982       499.982       499.982       499.982       499.982       499.982       499.982       499.982       499.982      
2400          499.977       499.977       499.977       499.977       499.977       499.977       499.977       499.977       499.977       499.977       499.977      
2450          499.973       499.973       499.973       499.973       499.973       499.973       499.973       499.973       499.973       499.973       499.973      
2500          499.971       499.971       499.971       499.971       499.971       499.971       499.971       499.971       499.971       499.971       499.971      
2550          499.99        499.99        499.99        499.99        499.99        499.99        499.99        499.99        499.99        499.99        499.99       
2600          499.983       499.983       499.983       499.983       499.983       499.983       499.983       499.983       499.983       499.983       499.983      
2650          499.964       499.964       499.964       499.964       499.964       499.964       499.964       499.964       499.964       499.964       499.964      
2700          499.977       499.977       499.977       499.977       499.977       499.977       499.977       499.977       499.977       499.977       499.977      
2750          499.962       499.962       499.962       499.962       499.962       499.962       499.962       499.962       499.962       499.962       499.962      
2800          499.967       499.967       499.967       499.967       499.967       499.967       499.967       499.967       499.967       499.967       499.967      
2850          499.945       499.945       499.945       499.945       499.945       499.945       499.945       499.945       499.945       499.945       499.945      
2900          499.971       499.971       499.971       499.971       499.971       499.971       499.971       499.971       499.971       499.971       499.971      
2950          499.977       499.977       499.977       499.977       499.977       499.977       499.977       499.977       499.977       499.977       499.977      
3000          499.981       499.981       499.981       499.981       499.981       499.981       499.981       499.981       499.981       499.981       499.981      
3050          499.975       499.975       499.975       499.975       499.975       499.975       499.975       499.975       499.975       499.975       499.975      
3100          499.96        499.96        499.96        499.96        499.96        499.96        499.96        499.96        499.96        499.96        499.96       
3150          499.961       499.961       499.961       499.961       499.961       499.961       499.961       499.961       499.961       499.961       499.961      
3200          499.985       499.985       499.985       499.985       499.985       499.985       499.985       499.985       499.985       499.985       499.985      
3250          499.98        499.98        499.98        499.98        499.98        499.98        499.98        499.98        499.98        499.98        499.98       
3300          499.966       499.966       499.966       499.966       499.966       499.966       499.966       499.966       499.966       499.966       499.966      
3350          499.974       499.974       499.974       499.974       499.974       499.974       499.974       499.974       499.974       499.974       499.974      
3400          499.989       499.989       499.989       499.989       499.989       499.989       499.989       499.989       499.989       499.989       499.989      
3450          499.969       499.969       499.969       499.969       499.969       499.969       499.969       499.969       499.969       499.969       499.969      
3500          499.959       499.959       499.959       499.959       499.959       499.959       499.959       499.959       499.959       499.959       499.959      
3550          499.972       499.972       499.972       499.972       499.972       499.972       499.972       499.972       499.972       499.972       499.972      
3600          499.96        499.96        499.96        499.96        499.96        499.96        499.96        499.96        499.96        499.96        499.96       
3650          499.975       499.975       499.975       499.975       499.975       499.975       499.975       499.975       499.975       499.975       499.975      
3700          499.95        499.95        499.95        499.95        499.95        499.95        499.95        499.95        499.95        499.95        499.95       
3750          499.953       499.953       499.953       499.953       499.953       499.953       499.953       499.953       499.953       499.953       499.953      
3800          499.969       499.969       499.969       499.969       499.969       499.969       499.969       499.969       499.969       499.969       499.969      
3850          499.983       499.983       499.983       499.983       499.983       499.983       499.983       499.983       499.983       499.983       499.983      
3900          499.987       499.987       499.987       499.987       499.987       499.987       499.987       499.987       499.987       499.987       499.987      
3950          499.975       499.975       499.975       499.975       499.975       499.975       499.975       499.975       499.975       499.975       499.975      
4000          499.967       499.967       499.967       499.967       499.967       499.967       499.967       499.967       499.967       499.967       499.967      
4050          499.967       499.967       499.967       499.967       499.967       499.967       499.967       499.967       499.967       499.967       499.967      
4100          499.966       499.966       499.966       499.966       499.966       499.966       499.966       499.966       499.966       499.966       499.966      
4150          499.971       499.971       499.971       499.971       499.971       499.971       499.971       499.971       499.971       499.971       499.971      
4200          499.963       499.963       499.963       499.963       499.963       499.963       499.963       499.963       499.963       499.963       499.963      
4250          499.945       499.945       499.945       499.945       499.945       499.945       499.945       499.945       499.945       499.945       499.945      
4300          499.975       499.975       499.975       499.975       499.975       499.975       499.975       499.975       499.975       499.975       499.975      
4350          499.971       499.971       499.971       499.971       499.971       499.971       499.971       499.971       499.971       499.971       499.971      
4400          499.922       499.922       499.922       499.922       499.922       499.922       499.922       499.922       499.922       499.922       499.922      
4450          499.973       499.973       499.973       499.973       499.973       499.973       499.973       499.973       499.973       499.973       499.973      
4500          499.955       499.955       499.955       499.955       499.955       499.955       499.955       499.955       499.955       499.955       499.955      
4550          499.936       499.936       499.936       499.936       499.936       499.936       499.936       499.936       499.936       499.936       499.936      
4600          499.959       499.959       499.959       499.959       499.959       499.959       499.959       499.959       499.959       499.959       499.959      
4650          499.986       499.986       499.986       499.986       499.986       499.986       499.986       499.986       499.986       499.986       499.986      
4700          499.967       499.967       499.967       499.967       499.967       499.967       499.967       499.967       499.967       499.967       499.967      
4750          499.98        499.98        499.98        499.98        499.98        499.98        499.98        499.98        499.98        499.98        499.98       
4800          499.976       499.976       499.976       499.976       499.976       499.976       499.976       499.976       499.976       499.976       499.976      
4850          499.983       499.983       499.983       499.983       499.983       499.983       499.983       499.983       499.983       499.983       499.983      
4900          499.976       499.976       499.976       499.976       499.976       499.976       499.976       499.976       499.976       499.976       499.976      
4950          499.962       499.962       499.962       499.962       499.962       499.962       499.962       499.962       499.962       499.962       499.962      
5000          499.976       499.976       499.976       499.976       499.976       499.976       499.976       499.976       499.976       499.976       499.976      
