# Probe 0 (0.0015 0.0015 0)
# Probe 1 (0.0015 0.0015 0.002)
# Probe 2 (0.0015 0.0015 0.004)
# Probe 3 (0.0015 0.0015 0.006)
# Probe 4 (0.0015 0.0015 0.008)
# Probe 5 (0.0015 0.0015 0.01)
# Probe 6 (0.0015 0.0015 0.012)
# Probe 7 (0.0015 0.0015 0.014)
# Probe 8 (0.0015 0.0015 0.016)
# Probe 9 (0.0015 0.0015 0.018)
# Probe 10 (0.0015 0.0015 0.02)
# Time        0             1             2             3             4             5             6             7             8             9             10           
50            (0.000448314 0.00147494 -0.164594) (0.000448314 0.00147494 -0.164594) (0.000448314 0.00147494 -0.164594) (0.000448314 0.00147494 -0.164594) (0.000448314 0.00147494 -0.164594) (0.000448314 0.00147494 -0.164594) (0.000448314 0.00147494 -0.164594) (0.000448314 0.00147494 -0.164594) (0.000448314 0.00147494 -0.164594) (0.000448314 0.00147494 -0.164594) (0.000448314 0.00147494 -0.164594)
100           (3.06857e-05 8.12079e-05 -0.378453) (3.06857e-05 8.12079e-05 -0.378453) (3.06857e-05 8.12079e-05 -0.378453) (3.06857e-05 8.12079e-05 -0.378453) (3.06857e-05 8.12079e-05 -0.378453) (3.06857e-05 8.12079e-05 -0.378453) (3.06857e-05 8.12079e-05 -0.378453) (3.06857e-05 8.12079e-05 -0.378453) (3.06857e-05 8.12079e-05 -0.378453) (3.06857e-05 8.12079e-05 -0.378453) (3.06857e-05 8.12079e-05 -0.378453)
150           (-0.000172552 -0.000256414 -0.333537) (-0.000172552 -0.000256414 -0.333537) (-0.000172552 -0.000256414 -0.333537) (-0.000172552 -0.000256414 -0.333537) (-0.000172552 -0.000256414 -0.333537) (-0.000172552 -0.000256414 -0.333537) (-0.000172552 -0.000256414 -0.333537) (-0.000172552 -0.000256414 -0.333537) (-0.000172552 -0.000256414 -0.333537) (-0.000172552 -0.000256414 -0.333537) (-0.000172552 -0.000256414 -0.333537)
200           (0.000507311 0.000572944 0.379646) (0.000507311 0.000572944 0.379646) (0.000507311 0.000572944 0.379646) (0.000507311 0.000572944 0.379646) (0.000507311 0.000572944 0.379646) (0.000507311 0.000572944 0.379646) (0.000507311 0.000572944 0.379646) (0.000507311 0.000572944 0.379646) (0.000507311 0.000572944 0.379646) (0.000507311 0.000572944 0.379646) (0.000507311 0.000572944 0.379646)
250           (-0.000825689 -6.23048e-06 0.205616) (-0.000825689 -6.23048e-06 0.205616) (-0.000825689 -6.23048e-06 0.205616) (-0.000825689 -6.23048e-06 0.205616) (-0.000825689 -6.23048e-06 0.205616) (-0.000825689 -6.23048e-06 0.205616) (-0.000825689 -6.23048e-06 0.205616) (-0.000825689 -6.23048e-06 0.205616) (-0.000825689 -6.23048e-06 0.205616) (-0.000825689 -6.23048e-06 0.205616) (-0.000825689 -6.23048e-06 0.205616)
300           (-0.000187394 -0.000798578 2.31112) (-0.000187394 -0.000798578 2.31112) (-0.000187394 -0.000798578 2.31112) (-0.000187394 -0.000798578 2.31112) (-0.000187394 -0.000798578 2.31112) (-0.000187394 -0.000798578 2.31112) (-0.000187394 -0.000798578 2.31112) (-0.000187394 -0.000798578 2.31112) (-0.000187394 -0.000798578 2.31112) (-0.000187394 -0.000798578 2.31112) (-0.000187394 -0.000798578 2.31112)
350           (-0.000729901 -0.000646156 -0.695697) (-0.000729901 -0.000646156 -0.695697) (-0.000729901 -0.000646156 -0.695697) (-0.000729901 -0.000646156 -0.695697) (-0.000729901 -0.000646156 -0.695697) (-0.000729901 -0.000646156 -0.695697) (-0.000729901 -0.000646156 -0.695697) (-0.000729901 -0.000646156 -0.695697) (-0.000729901 -0.000646156 -0.695697) (-0.000729901 -0.000646156 -0.695697) (-0.000729901 -0.000646156 -0.695697)
400           (-0.000874952 -0.000350912 1.30475) (-0.000874952 -0.000350912 1.30475) (-0.000874952 -0.000350912 1.30475) (-0.000874952 -0.000350912 1.30475) (-0.000874952 -0.000350912 1.30475) (-0.000874952 -0.000350912 1.30475) (-0.000874952 -0.000350912 1.30475) (-0.000874952 -0.000350912 1.30475) (-0.000874952 -0.000350912 1.30475) (-0.000874952 -0.000350912 1.30475) (-0.000874952 -0.000350912 1.30475)
450           (-0.000635947 -0.000149133 0.0563643) (-0.000635947 -0.000149133 0.0563643) (-0.000635947 -0.000149133 0.0563643) (-0.000635947 -0.000149133 0.0563643) (-0.000635947 -0.000149133 0.0563643) (-0.000635947 -0.000149133 0.0563643) (-0.000635947 -0.000149133 0.0563643) (-0.000635947 -0.000149133 0.0563643) (-0.000635947 -0.000149133 0.0563643) (-0.000635947 -0.000149133 0.0563643) (-0.000635947 -0.000149133 0.0563643)
500           (-2.04051e-05 -0.000287758 0.157302) (-2.04051e-05 -0.000287758 0.157302) (-2.04051e-05 -0.000287758 0.157302) (-2.04051e-05 -0.000287758 0.157302) (-2.04051e-05 -0.000287758 0.157302) (-2.04051e-05 -0.000287758 0.157302) (-2.04051e-05 -0.000287758 0.157302) (-2.04051e-05 -0.000287758 0.157302) (-2.04051e-05 -0.000287758 0.157302) (-2.04051e-05 -0.000287758 0.157302) (-2.04051e-05 -0.000287758 0.157302)
550           (-0.000173552 -0.000545241 0.190728) (-0.000173552 -0.000545241 0.190728) (-0.000173552 -0.000545241 0.190728) (-0.000173552 -0.000545241 0.190728) (-0.000173552 -0.000545241 0.190728) (-0.000173552 -0.000545241 0.190728) (-0.000173552 -0.000545241 0.190728) (-0.000173552 -0.000545241 0.190728) (-0.000173552 -0.000545241 0.190728) (-0.000173552 -0.000545241 0.190728) (-0.000173552 -0.000545241 0.190728)
600           (0.000571964 -0.00054624 1.49086) (0.000571964 -0.00054624 1.49086) (0.000571964 -0.00054624 1.49086) (0.000571964 -0.00054624 1.49086) (0.000571964 -0.00054624 1.49086) (0.000571964 -0.00054624 1.49086) (0.000571964 -0.00054624 1.49086) (0.000571964 -0.00054624 1.49086) (0.000571964 -0.00054624 1.49086) (0.000571964 -0.00054624 1.49086) (0.000571964 -0.00054624 1.49086)
650           (-0.00138849 -0.000752629 1.11424) (-0.00138849 -0.000752629 1.11424) (-0.00138849 -0.000752629 1.11424) (-0.00138849 -0.000752629 1.11424) (-0.00138849 -0.000752629 1.11424) (-0.00138849 -0.000752629 1.11424) (-0.00138849 -0.000752629 1.11424) (-0.00138849 -0.000752629 1.11424) (-0.00138849 -0.000752629 1.11424) (-0.00138849 -0.000752629 1.11424) (-0.00138849 -0.000752629 1.11424)
700           (0.000240448 -0.000134876 -0.0891103) (0.000240448 -0.000134876 -0.0891103) (0.000240448 -0.000134876 -0.0891103) (0.000240448 -0.000134876 -0.0891103) (0.000240448 -0.000134876 -0.0891103) (0.000240448 -0.000134876 -0.0891103) (0.000240448 -0.000134876 -0.0891103) (0.000240448 -0.000134876 -0.0891103) (0.000240448 -0.000134876 -0.0891103) (0.000240448 -0.000134876 -0.0891103) (0.000240448 -0.000134876 -0.0891103)
750           (-0.000465447 -0.000965064 -0.122877) (-0.000465447 -0.000965064 -0.122877) (-0.000465447 -0.000965064 -0.122877) (-0.000465447 -0.000965064 -0.122877) (-0.000465447 -0.000965064 -0.122877) (-0.000465447 -0.000965064 -0.122877) (-0.000465447 -0.000965064 -0.122877) (-0.000465447 -0.000965064 -0.122877) (-0.000465447 -0.000965064 -0.122877) (-0.000465447 -0.000965064 -0.122877) (-0.000465447 -0.000965064 -0.122877)
800           (-0.000242162 -0.000488363 -0.139955) (-0.000242162 -0.000488363 -0.139955) (-0.000242162 -0.000488363 -0.139955) (-0.000242162 -0.000488363 -0.139955) (-0.000242162 -0.000488363 -0.139955) (-0.000242162 -0.000488363 -0.139955) (-0.000242162 -0.000488363 -0.139955) (-0.000242162 -0.000488363 -0.139955) (-0.000242162 -0.000488363 -0.139955) (-0.000242162 -0.000488363 -0.139955) (-0.000242162 -0.000488363 -0.139955)
850           (0.000756434 0.00221865 -1.35845) (0.000756434 0.00221865 -1.35845) (0.000756434 0.00221865 -1.35845) (0.000756434 0.00221865 -1.35845) (0.000756434 0.00221865 -1.35845) (0.000756434 0.00221865 -1.35845) (0.000756434 0.00221865 -1.35845) (0.000756434 0.00221865 -1.35845) (0.000756434 0.00221865 -1.35845) (0.000756434 0.00221865 -1.35845) (0.000756434 0.00221865 -1.35845)
900           (0.000190607 -0.000353339 0.328077) (0.000190607 -0.000353339 0.328077) (0.000190607 -0.000353339 0.328077) (0.000190607 -0.000353339 0.328077) (0.000190607 -0.000353339 0.328077) (0.000190607 -0.000353339 0.328077) (0.000190607 -0.000353339 0.328077) (0.000190607 -0.000353339 0.328077) (0.000190607 -0.000353339 0.328077) (0.000190607 -0.000353339 0.328077) (0.000190607 -0.000353339 0.328077)
950           (0.000390059 -0.000155851 0.154959) (0.000390059 -0.000155851 0.154959) (0.000390059 -0.000155851 0.154959) (0.000390059 -0.000155851 0.154959) (0.000390059 -0.000155851 0.154959) (0.000390059 -0.000155851 0.154959) (0.000390059 -0.000155851 0.154959) (0.000390059 -0.000155851 0.154959) (0.000390059 -0.000155851 0.154959) (0.000390059 -0.000155851 0.154959) (0.000390059 -0.000155851 0.154959)
1000          (0.000781887 0.000983399 1.03432) (0.000781887 0.000983399 1.03432) (0.000781887 0.000983399 1.03432) (0.000781887 0.000983399 1.03432) (0.000781887 0.000983399 1.03432) (0.000781887 0.000983399 1.03432) (0.000781887 0.000983399 1.03432) (0.000781887 0.000983399 1.03432) (0.000781887 0.000983399 1.03432) (0.000781887 0.000983399 1.03432) (0.000781887 0.000983399 1.03432)
1050          (-0.000585734 -0.000848905 -0.289021) (-0.000585734 -0.000848905 -0.289021) (-0.000585734 -0.000848905 -0.289021) (-0.000585734 -0.000848905 -0.289021) (-0.000585734 -0.000848905 -0.289021) (-0.000585734 -0.000848905 -0.289021) (-0.000585734 -0.000848905 -0.289021) (-0.000585734 -0.000848905 -0.289021) (-0.000585734 -0.000848905 -0.289021) (-0.000585734 -0.000848905 -0.289021) (-0.000585734 -0.000848905 -0.289021)
1100          (-0.000470971 -0.000252391 0.179369) (-0.000470971 -0.000252391 0.179369) (-0.000470971 -0.000252391 0.179369) (-0.000470971 -0.000252391 0.179369) (-0.000470971 -0.000252391 0.179369) (-0.000470971 -0.000252391 0.179369) (-0.000470971 -0.000252391 0.179369) (-0.000470971 -0.000252391 0.179369) (-0.000470971 -0.000252391 0.179369) (-0.000470971 -0.000252391 0.179369) (-0.000470971 -0.000252391 0.179369)
1150          (-0.000123889 -0.00167503 -0.222164) (-0.000123889 -0.00167503 -0.222164) (-0.000123889 -0.00167503 -0.222164) (-0.000123889 -0.00167503 -0.222164) (-0.000123889 -0.00167503 -0.222164) (-0.000123889 -0.00167503 -0.222164) (-0.000123889 -0.00167503 -0.222164) (-0.000123889 -0.00167503 -0.222164) (-0.000123889 -0.00167503 -0.222164) (-0.000123889 -0.00167503 -0.222164) (-0.000123889 -0.00167503 -0.222164)
1200          (-0.000269722 -0.000807357 -0.196085) (-0.000269722 -0.000807357 -0.196085) (-0.000269722 -0.000807357 -0.196085) (-0.000269722 -0.000807357 -0.196085) (-0.000269722 -0.000807357 -0.196085) (-0.000269722 -0.000807357 -0.196085) (-0.000269722 -0.000807357 -0.196085) (-0.000269722 -0.000807357 -0.196085) (-0.000269722 -0.000807357 -0.196085) (-0.000269722 -0.000807357 -0.196085) (-0.000269722 -0.000807357 -0.196085)
1250          (-0.000454469 -5.47708e-05 0.0714676) (-0.000454469 -5.47708e-05 0.0714676) (-0.000454469 -5.47708e-05 0.0714676) (-0.000454469 -5.47708e-05 0.0714676) (-0.000454469 -5.47708e-05 0.0714676) (-0.000454469 -5.47708e-05 0.0714676) (-0.000454469 -5.47708e-05 0.0714676) (-0.000454469 -5.47708e-05 0.0714676) (-0.000454469 -5.47708e-05 0.0714676) (-0.000454469 -5.47708e-05 0.0714676) (-0.000454469 -5.47708e-05 0.0714676)
1300          (-7.23069e-05 0.000219129 0.668861) (-7.23069e-05 0.000219129 0.668861) (-7.23069e-05 0.000219129 0.668861) (-7.23069e-05 0.000219129 0.668861) (-7.23069e-05 0.000219129 0.668861) (-7.23069e-05 0.000219129 0.668861) (-7.23069e-05 0.000219129 0.668861) (-7.23069e-05 0.000219129 0.668861) (-7.23069e-05 0.000219129 0.668861) (-7.23069e-05 0.000219129 0.668861) (-7.23069e-05 0.000219129 0.668861)
1350          (-0.000454674 -0.000477478 0.33909) (-0.000454674 -0.000477478 0.33909) (-0.000454674 -0.000477478 0.33909) (-0.000454674 -0.000477478 0.33909) (-0.000454674 -0.000477478 0.33909) (-0.000454674 -0.000477478 0.33909) (-0.000454674 -0.000477478 0.33909) (-0.000454674 -0.000477478 0.33909) (-0.000454674 -0.000477478 0.33909) (-0.000454674 -0.000477478 0.33909) (-0.000454674 -0.000477478 0.33909)
1400          (0.00033998 0.000379464 0.0950312) (0.00033998 0.000379464 0.0950312) (0.00033998 0.000379464 0.0950312) (0.00033998 0.000379464 0.0950312) (0.00033998 0.000379464 0.0950312) (0.00033998 0.000379464 0.0950312) (0.00033998 0.000379464 0.0950312) (0.00033998 0.000379464 0.0950312) (0.00033998 0.000379464 0.0950312) (0.00033998 0.000379464 0.0950312) (0.00033998 0.000379464 0.0950312)
1450          (-0.000691865 -0.000226666 0.0228193) (-0.000691865 -0.000226666 0.0228193) (-0.000691865 -0.000226666 0.0228193) (-0.000691865 -0.000226666 0.0228193) (-0.000691865 -0.000226666 0.0228193) (-0.000691865 -0.000226666 0.0228193) (-0.000691865 -0.000226666 0.0228193) (-0.000691865 -0.000226666 0.0228193) (-0.000691865 -0.000226666 0.0228193) (-0.000691865 -0.000226666 0.0228193) (-0.000691865 -0.000226666 0.0228193)
1500          (-0.000426307 -5.61317e-05 0.0482507) (-0.000426307 -5.61317e-05 0.0482507) (-0.000426307 -5.61317e-05 0.0482507) (-0.000426307 -5.61317e-05 0.0482507) (-0.000426307 -5.61317e-05 0.0482507) (-0.000426307 -5.61317e-05 0.0482507) (-0.000426307 -5.61317e-05 0.0482507) (-0.000426307 -5.61317e-05 0.0482507) (-0.000426307 -5.61317e-05 0.0482507) (-0.000426307 -5.61317e-05 0.0482507) (-0.000426307 -5.61317e-05 0.0482507)
1550          (-0.000229508 0.000269514 0.121386) (-0.000229508 0.000269514 0.121386) (-0.000229508 0.000269514 0.121386) (-0.000229508 0.000269514 0.121386) (-0.000229508 0.000269514 0.121386) (-0.000229508 0.000269514 0.121386) (-0.000229508 0.000269514 0.121386) (-0.000229508 0.000269514 0.121386) (-0.000229508 0.000269514 0.121386) (-0.000229508 0.000269514 0.121386) (-0.000229508 0.000269514 0.121386)
1600          (-0.00181762 -0.00117766 1.3614) (-0.00181762 -0.00117766 1.3614) (-0.00181762 -0.00117766 1.3614) (-0.00181762 -0.00117766 1.3614) (-0.00181762 -0.00117766 1.3614) (-0.00181762 -0.00117766 1.3614) (-0.00181762 -0.00117766 1.3614) (-0.00181762 -0.00117766 1.3614) (-0.00181762 -0.00117766 1.3614) (-0.00181762 -0.00117766 1.3614) (-0.00181762 -0.00117766 1.3614)
1650          (-0.00107377 -0.000117402 0.224046) (-0.00107377 -0.000117402 0.224046) (-0.00107377 -0.000117402 0.224046) (-0.00107377 -0.000117402 0.224046) (-0.00107377 -0.000117402 0.224046) (-0.00107377 -0.000117402 0.224046) (-0.00107377 -0.000117402 0.224046) (-0.00107377 -0.000117402 0.224046) (-0.00107377 -0.000117402 0.224046) (-0.00107377 -0.000117402 0.224046) (-0.00107377 -0.000117402 0.224046)
1700          (-0.00049367 -0.000450467 -0.301028) (-0.00049367 -0.000450467 -0.301028) (-0.00049367 -0.000450467 -0.301028) (-0.00049367 -0.000450467 -0.301028) (-0.00049367 -0.000450467 -0.301028) (-0.00049367 -0.000450467 -0.301028) (-0.00049367 -0.000450467 -0.301028) (-0.00049367 -0.000450467 -0.301028) (-0.00049367 -0.000450467 -0.301028) (-0.00049367 -0.000450467 -0.301028) (-0.00049367 -0.000450467 -0.301028)
1750          (-0.000466072 3.54188e-05 -0.122299) (-0.000466072 3.54188e-05 -0.122299) (-0.000466072 3.54188e-05 -0.122299) (-0.000466072 3.54188e-05 -0.122299) (-0.000466072 3.54188e-05 -0.122299) (-0.000466072 3.54188e-05 -0.122299) (-0.000466072 3.54188e-05 -0.122299) (-0.000466072 3.54188e-05 -0.122299) (-0.000466072 3.54188e-05 -0.122299) (-0.000466072 3.54188e-05 -0.122299) (-0.000466072 3.54188e-05 -0.122299)
1800          (0.000798326 0.000177769 0.474124) (0.000798326 0.000177769 0.474124) (0.000798326 0.000177769 0.474124) (0.000798326 0.000177769 0.474124) (0.000798326 0.000177769 0.474124) (0.000798326 0.000177769 0.474124) (0.000798326 0.000177769 0.474124) (0.000798326 0.000177769 0.474124) (0.000798326 0.000177769 0.474124) (0.000798326 0.000177769 0.474124) (0.000798326 0.000177769 0.474124)
1850          (-0.000563767 0.00201939 -1.04147) (-0.000563767 0.00201939 -1.04147) (-0.000563767 0.00201939 -1.04147) (-0.000563767 0.00201939 -1.04147) (-0.000563767 0.00201939 -1.04147) (-0.000563767 0.00201939 -1.04147) (-0.000563767 0.00201939 -1.04147) (-0.000563767 0.00201939 -1.04147) (-0.000563767 0.00201939 -1.04147) (-0.000563767 0.00201939 -1.04147) (-0.000563767 0.00201939 -1.04147)
1900          (0.000666554 0.00311987 -0.50989) (0.000666554 0.00311987 -0.50989) (0.000666554 0.00311987 -0.50989) (0.000666554 0.00311987 -0.50989) (0.000666554 0.00311987 -0.50989) (0.000666554 0.00311987 -0.50989) (0.000666554 0.00311987 -0.50989) (0.000666554 0.00311987 -0.50989) (0.000666554 0.00311987 -0.50989) (0.000666554 0.00311987 -0.50989) (0.000666554 0.00311987 -0.50989)
1950          (-0.00117964 -0.000149003 -0.0482837) (-0.00117964 -0.000149003 -0.0482837) (-0.00117964 -0.000149003 -0.0482837) (-0.00117964 -0.000149003 -0.0482837) (-0.00117964 -0.000149003 -0.0482837) (-0.00117964 -0.000149003 -0.0482837) (-0.00117964 -0.000149003 -0.0482837) (-0.00117964 -0.000149003 -0.0482837) (-0.00117964 -0.000149003 -0.0482837) (-0.00117964 -0.000149003 -0.0482837) (-0.00117964 -0.000149003 -0.0482837)
2000          (0.00112265 -0.00107592 0.243675) (0.00112265 -0.00107592 0.243675) (0.00112265 -0.00107592 0.243675) (0.00112265 -0.00107592 0.243675) (0.00112265 -0.00107592 0.243675) (0.00112265 -0.00107592 0.243675) (0.00112265 -0.00107592 0.243675) (0.00112265 -0.00107592 0.243675) (0.00112265 -0.00107592 0.243675) (0.00112265 -0.00107592 0.243675) (0.00112265 -0.00107592 0.243675)
2050          (-0.000722636 -0.00037455 -1.45767) (-0.000722636 -0.00037455 -1.45767) (-0.000722636 -0.00037455 -1.45767) (-0.000722636 -0.00037455 -1.45767) (-0.000722636 -0.00037455 -1.45767) (-0.000722636 -0.00037455 -1.45767) (-0.000722636 -0.00037455 -1.45767) (-0.000722636 -0.00037455 -1.45767) (-0.000722636 -0.00037455 -1.45767) (-0.000722636 -0.00037455 -1.45767) (-0.000722636 -0.00037455 -1.45767)
2100          (0.000305292 0.000114641 0.182471) (0.000305292 0.000114641 0.182471) (0.000305292 0.000114641 0.182471) (0.000305292 0.000114641 0.182471) (0.000305292 0.000114641 0.182471) (0.000305292 0.000114641 0.182471) (0.000305292 0.000114641 0.182471) (0.000305292 0.000114641 0.182471) (0.000305292 0.000114641 0.182471) (0.000305292 0.000114641 0.182471) (0.000305292 0.000114641 0.182471)
2150          (0.000259409 0.000301939 0.783184) (0.000259409 0.000301939 0.783184) (0.000259409 0.000301939 0.783184) (0.000259409 0.000301939 0.783184) (0.000259409 0.000301939 0.783184) (0.000259409 0.000301939 0.783184) (0.000259409 0.000301939 0.783184) (0.000259409 0.000301939 0.783184) (0.000259409 0.000301939 0.783184) (0.000259409 0.000301939 0.783184) (0.000259409 0.000301939 0.783184)
2200          (-0.000155036 -0.000277028 1.12158) (-0.000155036 -0.000277028 1.12158) (-0.000155036 -0.000277028 1.12158) (-0.000155036 -0.000277028 1.12158) (-0.000155036 -0.000277028 1.12158) (-0.000155036 -0.000277028 1.12158) (-0.000155036 -0.000277028 1.12158) (-0.000155036 -0.000277028 1.12158) (-0.000155036 -0.000277028 1.12158) (-0.000155036 -0.000277028 1.12158) (-0.000155036 -0.000277028 1.12158)
2250          (-0.000314617 -0.000137477 0.34879) (-0.000314617 -0.000137477 0.34879) (-0.000314617 -0.000137477 0.34879) (-0.000314617 -0.000137477 0.34879) (-0.000314617 -0.000137477 0.34879) (-0.000314617 -0.000137477 0.34879) (-0.000314617 -0.000137477 0.34879) (-0.000314617 -0.000137477 0.34879) (-0.000314617 -0.000137477 0.34879) (-0.000314617 -0.000137477 0.34879) (-0.000314617 -0.000137477 0.34879)
2300          (-0.000278794 -0.00247987 1.25521) (-0.000278794 -0.00247987 1.25521) (-0.000278794 -0.00247987 1.25521) (-0.000278794 -0.00247987 1.25521) (-0.000278794 -0.00247987 1.25521) (-0.000278794 -0.00247987 1.25521) (-0.000278794 -0.00247987 1.25521) (-0.000278794 -0.00247987 1.25521) (-0.000278794 -0.00247987 1.25521) (-0.000278794 -0.00247987 1.25521) (-0.000278794 -0.00247987 1.25521)
2350          (-4.53755e-06 0.000395048 0.574322) (-4.53755e-06 0.000395048 0.574322) (-4.53755e-06 0.000395048 0.574322) (-4.53755e-06 0.000395048 0.574322) (-4.53755e-06 0.000395048 0.574322) (-4.53755e-06 0.000395048 0.574322) (-4.53755e-06 0.000395048 0.574322) (-4.53755e-06 0.000395048 0.574322) (-4.53755e-06 0.000395048 0.574322) (-4.53755e-06 0.000395048 0.574322) (-4.53755e-06 0.000395048 0.574322)
2400          (0.000295207 9.22331e-05 0.0806506) (0.000295207 9.22331e-05 0.0806506) (0.000295207 9.22331e-05 0.0806506) (0.000295207 9.22331e-05 0.0806506) (0.000295207 9.22331e-05 0.0806506) (0.000295207 9.22331e-05 0.0806506) (0.000295207 9.22331e-05 0.0806506) (0.000295207 9.22331e-05 0.0806506) (0.000295207 9.22331e-05 0.0806506) (0.000295207 9.22331e-05 0.0806506) (0.000295207 9.22331e-05 0.0806506)
2450          (-0.0012245 -0.0012421 -1.47627) (-0.0012245 -0.0012421 -1.47627) (-0.0012245 -0.0012421 -1.47627) (-0.0012245 -0.0012421 -1.47627) (-0.0012245 -0.0012421 -1.47627) (-0.0012245 -0.0012421 -1.47627) (-0.0012245 -0.0012421 -1.47627) (-0.0012245 -0.0012421 -1.47627) (-0.0012245 -0.0012421 -1.47627) (-0.0012245 -0.0012421 -1.47627) (-0.0012245 -0.0012421 -1.47627)
2500          (0.000276129 -0.000195959 -0.169045) (0.000276129 -0.000195959 -0.169045) (0.000276129 -0.000195959 -0.169045) (0.000276129 -0.000195959 -0.169045) (0.000276129 -0.000195959 -0.169045) (0.000276129 -0.000195959 -0.169045) (0.000276129 -0.000195959 -0.169045) (0.000276129 -0.000195959 -0.169045) (0.000276129 -0.000195959 -0.169045) (0.000276129 -0.000195959 -0.169045) (0.000276129 -0.000195959 -0.169045)
2550          (-0.000317804 -0.000111532 0.299816) (-0.000317804 -0.000111532 0.299816) (-0.000317804 -0.000111532 0.299816) (-0.000317804 -0.000111532 0.299816) (-0.000317804 -0.000111532 0.299816) (-0.000317804 -0.000111532 0.299816) (-0.000317804 -0.000111532 0.299816) (-0.000317804 -0.000111532 0.299816) (-0.000317804 -0.000111532 0.299816) (-0.000317804 -0.000111532 0.299816) (-0.000317804 -0.000111532 0.299816)
2600          (-0.000316248 -0.000599279 0.268725) (-0.000316248 -0.000599279 0.268725) (-0.000316248 -0.000599279 0.268725) (-0.000316248 -0.000599279 0.268725) (-0.000316248 -0.000599279 0.268725) (-0.000316248 -0.000599279 0.268725) (-0.000316248 -0.000599279 0.268725) (-0.000316248 -0.000599279 0.268725) (-0.000316248 -0.000599279 0.268725) (-0.000316248 -0.000599279 0.268725) (-0.000316248 -0.000599279 0.268725)
2650          (0.00430653 -0.0041315 0.813264) (0.00430653 -0.0041315 0.813264) (0.00430653 -0.0041315 0.813264) (0.00430653 -0.0041315 0.813264) (0.00430653 -0.0041315 0.813264) (0.00430653 -0.0041315 0.813264) (0.00430653 -0.0041315 0.813264) (0.00430653 -0.0041315 0.813264) (0.00430653 -0.0041315 0.813264) (0.00430653 -0.0041315 0.813264) (0.00430653 -0.0041315 0.813264)
2700          (-0.000655813 -0.000547395 1.44807) (-0.000655813 -0.000547395 1.44807) (-0.000655813 -0.000547395 1.44807) (-0.000655813 -0.000547395 1.44807) (-0.000655813 -0.000547395 1.44807) (-0.000655813 -0.000547395 1.44807) (-0.000655813 -0.000547395 1.44807) (-0.000655813 -0.000547395 1.44807) (-0.000655813 -0.000547395 1.44807) (-0.000655813 -0.000547395 1.44807) (-0.000655813 -0.000547395 1.44807)
2750          (0.00075306 -0.000443746 0.00619436) (0.00075306 -0.000443746 0.00619436) (0.00075306 -0.000443746 0.00619436) (0.00075306 -0.000443746 0.00619436) (0.00075306 -0.000443746 0.00619436) (0.00075306 -0.000443746 0.00619436) (0.00075306 -0.000443746 0.00619436) (0.00075306 -0.000443746 0.00619436) (0.00075306 -0.000443746 0.00619436) (0.00075306 -0.000443746 0.00619436) (0.00075306 -0.000443746 0.00619436)
2800          (0.000366927 0.00146688 1.00088) (0.000366927 0.00146688 1.00088) (0.000366927 0.00146688 1.00088) (0.000366927 0.00146688 1.00088) (0.000366927 0.00146688 1.00088) (0.000366927 0.00146688 1.00088) (0.000366927 0.00146688 1.00088) (0.000366927 0.00146688 1.00088) (0.000366927 0.00146688 1.00088) (0.000366927 0.00146688 1.00088) (0.000366927 0.00146688 1.00088)
2850          (-0.00110202 -0.000358929 -0.32377) (-0.00110202 -0.000358929 -0.32377) (-0.00110202 -0.000358929 -0.32377) (-0.00110202 -0.000358929 -0.32377) (-0.00110202 -0.000358929 -0.32377) (-0.00110202 -0.000358929 -0.32377) (-0.00110202 -0.000358929 -0.32377) (-0.00110202 -0.000358929 -0.32377) (-0.00110202 -0.000358929 -0.32377) (-0.00110202 -0.000358929 -0.32377) (-0.00110202 -0.000358929 -0.32377)
2900          (-0.000495704 -0.000542347 -0.447279) (-0.000495704 -0.000542347 -0.447279) (-0.000495704 -0.000542347 -0.447279) (-0.000495704 -0.000542347 -0.447279) (-0.000495704 -0.000542347 -0.447279) (-0.000495704 -0.000542347 -0.447279) (-0.000495704 -0.000542347 -0.447279) (-0.000495704 -0.000542347 -0.447279) (-0.000495704 -0.000542347 -0.447279) (-0.000495704 -0.000542347 -0.447279) (-0.000495704 -0.000542347 -0.447279)
2950          (0.000184367 0.000172965 0.0816166) (0.000184367 0.000172965 0.0816166) (0.000184367 0.000172965 0.0816166) (0.000184367 0.000172965 0.0816166) (0.000184367 0.000172965 0.0816166) (0.000184367 0.000172965 0.0816166) (0.000184367 0.000172965 0.0816166) (0.000184367 0.000172965 0.0816166) (0.000184367 0.000172965 0.0816166) (0.000184367 0.000172965 0.0816166) (0.000184367 0.000172965 0.0816166)
3000          (-0.000306646 0.000867419 1.39565) (-0.000306646 0.000867419 1.39565) (-0.000306646 0.000867419 1.39565) (-0.000306646 0.000867419 1.39565) (-0.000306646 0.000867419 1.39565) (-0.000306646 0.000867419 1.39565) (-0.000306646 0.000867419 1.39565) (-0.000306646 0.000867419 1.39565) (-0.000306646 0.000867419 1.39565) (-0.000306646 0.000867419 1.39565) (-0.000306646 0.000867419 1.39565)
3050          (0.00117632 0.000353175 1.54123) (0.00117632 0.000353175 1.54123) (0.00117632 0.000353175 1.54123) (0.00117632 0.000353175 1.54123) (0.00117632 0.000353175 1.54123) (0.00117632 0.000353175 1.54123) (0.00117632 0.000353175 1.54123) (0.00117632 0.000353175 1.54123) (0.00117632 0.000353175 1.54123) (0.00117632 0.000353175 1.54123) (0.00117632 0.000353175 1.54123)
3100          (0.000315406 0.00104179 0.323134) (0.000315406 0.00104179 0.323134) (0.000315406 0.00104179 0.323134) (0.000315406 0.00104179 0.323134) (0.000315406 0.00104179 0.323134) (0.000315406 0.00104179 0.323134) (0.000315406 0.00104179 0.323134) (0.000315406 0.00104179 0.323134) (0.000315406 0.00104179 0.323134) (0.000315406 0.00104179 0.323134) (0.000315406 0.00104179 0.323134)
3150          (-0.000377194 -0.000368559 0.0530079) (-0.000377194 -0.000368559 0.0530079) (-0.000377194 -0.000368559 0.0530079) (-0.000377194 -0.000368559 0.0530079) (-0.000377194 -0.000368559 0.0530079) (-0.000377194 -0.000368559 0.0530079) (-0.000377194 -0.000368559 0.0530079) (-0.000377194 -0.000368559 0.0530079) (-0.000377194 -0.000368559 0.0530079) (-0.000377194 -0.000368559 0.0530079) (-0.000377194 -0.000368559 0.0530079)
3200          (-0.000354686 -0.000551633 0.135551) (-0.000354686 -0.000551633 0.135551) (-0.000354686 -0.000551633 0.135551) (-0.000354686 -0.000551633 0.135551) (-0.000354686 -0.000551633 0.135551) (-0.000354686 -0.000551633 0.135551) (-0.000354686 -0.000551633 0.135551) (-0.000354686 -0.000551633 0.135551) (-0.000354686 -0.000551633 0.135551) (-0.000354686 -0.000551633 0.135551) (-0.000354686 -0.000551633 0.135551)
3250          (0.000581157 -8.27434e-08 0.994462) (0.000581157 -8.27434e-08 0.994462) (0.000581157 -8.27434e-08 0.994462) (0.000581157 -8.27434e-08 0.994462) (0.000581157 -8.27434e-08 0.994462) (0.000581157 -8.27434e-08 0.994462) (0.000581157 -8.27434e-08 0.994462) (0.000581157 -8.27434e-08 0.994462) (0.000581157 -8.27434e-08 0.994462) (0.000581157 -8.27434e-08 0.994462) (0.000581157 -8.27434e-08 0.994462)
3300          (-0.000749385 -0.000527228 -0.942654) (-0.000749385 -0.000527228 -0.942654) (-0.000749385 -0.000527228 -0.942654) (-0.000749385 -0.000527228 -0.942654) (-0.000749385 -0.000527228 -0.942654) (-0.000749385 -0.000527228 -0.942654) (-0.000749385 -0.000527228 -0.942654) (-0.000749385 -0.000527228 -0.942654) (-0.000749385 -0.000527228 -0.942654) (-0.000749385 -0.000527228 -0.942654) (-0.000749385 -0.000527228 -0.942654)
3350          (0.000290503 -0.000379179 0.0861666) (0.000290503 -0.000379179 0.0861666) (0.000290503 -0.000379179 0.0861666) (0.000290503 -0.000379179 0.0861666) (0.000290503 -0.000379179 0.0861666) (0.000290503 -0.000379179 0.0861666) (0.000290503 -0.000379179 0.0861666) (0.000290503 -0.000379179 0.0861666) (0.000290503 -0.000379179 0.0861666) (0.000290503 -0.000379179 0.0861666) (0.000290503 -0.000379179 0.0861666)
3400          (0.000115164 -0.00110516 -0.193746) (0.000115164 -0.00110516 -0.193746) (0.000115164 -0.00110516 -0.193746) (0.000115164 -0.00110516 -0.193746) (0.000115164 -0.00110516 -0.193746) (0.000115164 -0.00110516 -0.193746) (0.000115164 -0.00110516 -0.193746) (0.000115164 -0.00110516 -0.193746) (0.000115164 -0.00110516 -0.193746) (0.000115164 -0.00110516 -0.193746) (0.000115164 -0.00110516 -0.193746)
3450          (-0.00175085 -0.000751733 -1.07053) (-0.00175085 -0.000751733 -1.07053) (-0.00175085 -0.000751733 -1.07053) (-0.00175085 -0.000751733 -1.07053) (-0.00175085 -0.000751733 -1.07053) (-0.00175085 -0.000751733 -1.07053) (-0.00175085 -0.000751733 -1.07053) (-0.00175085 -0.000751733 -1.07053) (-0.00175085 -0.000751733 -1.07053) (-0.00175085 -0.000751733 -1.07053) (-0.00175085 -0.000751733 -1.07053)
3500          (-0.00367308 0.00177755 -0.41211) (-0.00367308 0.00177755 -0.41211) (-0.00367308 0.00177755 -0.41211) (-0.00367308 0.00177755 -0.41211) (-0.00367308 0.00177755 -0.41211) (-0.00367308 0.00177755 -0.41211) (-0.00367308 0.00177755 -0.41211) (-0.00367308 0.00177755 -0.41211) (-0.00367308 0.00177755 -0.41211) (-0.00367308 0.00177755 -0.41211) (-0.00367308 0.00177755 -0.41211)
3550          (1.3482e-05 -0.000733691 -0.522319) (1.3482e-05 -0.000733691 -0.522319) (1.3482e-05 -0.000733691 -0.522319) (1.3482e-05 -0.000733691 -0.522319) (1.3482e-05 -0.000733691 -0.522319) (1.3482e-05 -0.000733691 -0.522319) (1.3482e-05 -0.000733691 -0.522319) (1.3482e-05 -0.000733691 -0.522319) (1.3482e-05 -0.000733691 -0.522319) (1.3482e-05 -0.000733691 -0.522319) (1.3482e-05 -0.000733691 -0.522319)