# Probe 0 (0.0015 0.0015 0)
# Probe 1 (0.0015 0.0015 0.01)
# Probe 2 (0.0015 0.0015 0.02)
# Probe 3 (0.0015 0.0015 0.03)
# Probe 4 (0.0015 0.0015 0.04)
# Probe 5 (0.0015 0.0015 0.05)
# Probe 6 (0.0015 0.0015 0.06)
# Probe 7 (0.0015 0.0015 0.07)
# Probe 8 (0.0015 0.0015 0.08)
# Probe 9 (0.0015 0.0015 0.09)
# Probe 10 (0.0015 0.0015 0.1)
# Time        0             1             2             3             4             5             6             7             8             9             10           
50            192494        133728        92875.6       75147.9       69134.6       67678.6       67780.4       67783.2       67783.1       67719.3       37280.2      
100           202434        157839        117370        90774.7       76812.6       70719.9       67778.1       67783.2       67782.6       67474.8       31931.4      
150           206903        169827        133439        105248        86540.4       75815.8       67798.8       67783.1       67780.1       67014         29044.1      
200           209569        177187        144247        116667        95898.9       81864.7       67883.5       67783.2       67772.6       66368         27195.7      
250           211375        182236        151975        125493        104028        87983.3       68076.9       67783.8       67756.2       65591.4       25890.3      
300           212686        185934        157771        132420        110898        93747.6       68414.9       67786.3       67726.8       64736.1       24908.6      
350           213686        188768        162286        137986        116709        99011.6       68918.1       67792.5       67680.9       63841.5       24136.5      
400           214477        191018        165917        142566        121673        103765        69592.4       67805         67616.1       62935         23509.4      
450           215121        192859        168916        146417        125965        108047        70430.1       67827.2       67531         62034.8       22987        
500           215660        194401        171448        149714        129723        111915        71416.1       67862.6       67425.2       61152.4       22543.3      
550           216119        195719        173626        152582        133047        115421        72529.4       67914.9       67299.5       60294.9       22160.4      
600           216517        196866        175531        155113        136019        118614        73747.3       67987.2       67155.1       59466.5       21825.6      
650           216869        197877        177218        157371        138700        121537        75048.3       68082.4       66993.9       58668.9       21529.5      
700           217182        198780        178729        159405        141135        124225        76412.6       68202.9       66818         57902.7       21265.4      
750           217463        199594        180095        161252        143363        126707        77822.5       68350.2       66629.6       57167.7       21027.7      
800           217719        200331        181336        162939        145410        129010        79262.8       68525.5       66431.2       56463         20812.5      
850           217952        201006        182475        164491        147304        131153        80720.5       68729         66225         55787.9       20616.3      
900           218167        201628        183525        165926        149061        133156        82185.4       68960.9       66013.5       55140.9       20436.5      
950           218366        202203        184498        167260        150701        135030        83649         69220.5       65798.6       54520.8       20271.2      
1000          218550        202737        185403        168502        152234        136792        85104.3       69506.9       65582.4       53926.2       20118.1      
1050          218722        203235        186247        169664        153672        138452        86544.9       69818.6       65367         53356.2       19976        
1100          218882        203701        187038        170755        155025        140021        87967         70154.1       65154         52809.4       19843.7      
1150          219033        204138        187783        171783        156302        141504        89367.5       70512.1       64944.8       52284.6       19720        
1200          219176        204551        188484        172753        157511        142912        90743.7       70890.5       64740.8       51780.8       19604.2      
1250          219310        204941        189147        173671        158656        144249        92094.2       71287.9       64543.1       51296.9       19495.3      
1300          219437        205309        189776        174541        159744        145522        93417.3       71702.4       64352.8       50831.9       19392.7      
1350          219557        205659        190372        175368        160779        146735        94712.2       72132.3       64170.6       50385.1       19295.9      
1400          219672        205992        190939        176155        161766        147893        95978.2       72575.9       63997.3       49955.6       19204.3      
1450          219781        206308        191479        176906        162707        149001        97214.9       73031.5       63833.5       49542.7       19117.5      
1500          219885        206610        191994        177622        163607        150060        98422.4       73497.5       63679.5       49145.7       19035.2      
1550          219984        206898        192485        178306        164467        151076        99600.7       73972.4       63535.9       48764         18956.9      
1600          220079        207173        192955        178961        165292        152052        100750        74454.9       63402.7       48396.8       18882.2      
1650          220169        207436        193405        179588        166083        152988        101870        74943.4       63280.2       48044         18811.2      
1700          220256        207688        193837        180190        166842        153888        102962        75436.9       63168.4       47704.7       18743.3      
1750          220339        207931        194251        180768        167572        154753        104027        75934.2       63067.4       47378.6       18678.5      
1800          220420        208163        194647        181323        168273        155586        105064        76434.3       62977.2       47065.2       18616.6      
1850          220497        208384        195029        181856        168946        156388        106074        76936.3       62897.5       46764.1       18557.3      
1900          220570        208599        195396        182368        169595        157160        107058        77439.2       62828.2       46474.9       18500.5      
1950          220642        208805        195750        182863        170222        157906        108017        77942.4       62769.3       46197.2       18446        
2000          220710        209005        196092        183341        170826        158625        108951        78445         62720.4       45930.7       18393.8      
2050          220776        209197        196422        183801        171410        159320        109861        78946.5       62681.3       45674.9       18343.6      
2100          220840        209383        196740        184246        171973        159991        110748        79446.3       62651.8       45429.7       18295.5      
2150          220902        209562        197047        184676        172518        160640        111611        79943.8       62631.6       45194.7       18249.3      
2200          220961        209736        197344        185092        173044        161268        112452        80438.6       62620.4       44969.6       18204.8      
2250          221019        209903        197631        185493        173554        161876        113272        80930.2       62618         44754.1       18162.1      
2300          221074        210065        197908        185882        174047        162465        114070        81418.3       62623.9       44547.9       18121.1      
2350          221128        210222        198177        186258        174524        163035        114848        81902.5       62638         44350.9       18081.6      
2400          221180        210374        198437        186622        174986        163587        115606        82382.5       62659.9       44162.7       18043.7      
2450          221231        210520        198688        186975        175434        164122        116345        82858.1       62689.2       43983         18007.2      
2500          221280        210663        198932        187316        175868        164641        117065        83329.1       62725.8       43811.8       17972.2      
2550          221327        210800        199169        187648        176289        165144        117767        83795.2       62769.2       43648.7       17938.5      
2600          221373        210934        199398        187969        176697        165633        118451        84256.3       62819.2       43493.4       17906.1      
2650          221417        211064        199620        188280        177093        166107        119118        84712.3       62875.5       43345.9       17874.9      
2700          221461        211189        199835        188583        177477        166567        119768        85163         62937.8       43205.8       17845        
2750          221502        211311        200045        188876        177851        167014        120403        85608.4       63005.8       43073         17816.3      
2800          221543        211430        200248        189161        178213        167448        121021        86048.4       63079.2       42947.3       17788.7      
2850          221582        211544        200443        189435        178563        167868        121625        86482.9       63157.8       42828.4       17762.2      
2900          221620        211653        200632        189701        178901        168276        122213        86911.9       63241.4       42716.3       17736.8      
2950          221657        211761        200816        189960        179231        168672        122787        87335.5       63329.6       42610.5       17712.4      
3000          221691        211862        200989        190203        179544        169054        123348        87753.6       63422.2       42511.1       17689.1      
3050          221724        211959        201156        190440        179849        169424        123894        88166         63518.9       42417.8       17666.7      
3100          221757        212055        201322        190673        180148        169785        124428        88572.7       63619.6       42330.5       17645.3      
3150          221789        212148        201482        190900        180438        170137        124948        88974.1       63724.1       42249         17624.8      
3200          221821        212240        201641        191123        180723        170478        125456        89369.8       63832         42173         17605.2      
3250          221851        212330        201795        191339        180999        170813        125952        89760.4       63943.4       42102.5       17586.5      
3300          221881        212417        201945        191551        181270        171138        126436        90145.1       64057.8       42037.3       17568.7      
3350          221911        212504        202093        191759        181535        171456        126908        90524.2       64175         41977.3       17551.6      
3400          221940        212588        202237        191961        181793        171766        127370        90897.9       64295         41922.2       17535.4      
3450          221968        212670        202378        192159        182045        172069        127821        91266.3       64417.5       41871.9       17520        
3500          221995        212750        202515        192352        182291        172364        128261        91629.3       64542.4       41826.3       17505.3      
3550          222022        212828        202649        192540        182531        172652        128692        91987         64669.5       41785.2       17491.4      
3600          222048        212904        202780        192724        182765        172933        129113        92339.5       64798.7       41748.5       17478.3      
3650          222074        212978        202908        192903        182993        173208        129525        92686.8       64929.8       41716.1       17465.8      
3700          222099        213050        203032        193078        183216        173475        129928        93029.1       65062.6       41687.8       17454        
3750          222123        213121        203154        193248        183433        173737        130322        93366.3       65197.1       41663.4       17442.9      
3800          222147        213190        203272        193415        183646        173992        130707        93698.7       65333.1       41643         17432.4      
3850          222170        213257        203388        193577        183853        174241        131084        94026.1       65470.5       41626.3       17422.6      
3900          222192        213323        203501        193736        184055        174484        131453        94348.8       65609.1       41613.2       17413.4      
3950          222214        213387        203611        193891        184253        174722        131814        94666.8       65748.9       41603.6       17404.8      
4000          222236        213450        203718        194042        184446        174954        132167        94980.2       65889.7       41597.4       17396.8      
4050          222256        213507        203817        194182        184625        175172        132514        95289.3       66031.7       41594.4       17389.3      
4100          222276        213567        203920        194326        184809        175393        132852        95593.7       66174.3       41594.6       17382.4      
4150          222296        213625        204020        194466        184988        175609        133184        95893.7       66317.8       41597.9       17376.1      
4200          222316        213682        204117        194604        185164        175820        133509        96189.3       66461.9       41604.2       17370.2      
4250          222334        213735        204209        194733        185330        176024        133827        96480.7       66606.6       41613.2       17364.9      
4300          222352        213789        204301        194864        185499        176226        134138        96767.9       66751.9       41625.1       17360.1      
4350          222370        213840        204390        194989        185659        176422        134443        97050.8       66897.3       41639.5       17355.8      
4400          222387        213891        204478        195113        185818        176612        134743        97330.2       67043.5       41656.5       17351.9      
4450          222403        213938        204559        195227        185964        176792        135036        97605.4       67189.9       41675.9       17348.5      
4500          222420        213987        204643        195346        186117        176978        135323        97876.6       67336.5       41697.8       17345.5      
4550          222437        214035        204726        195463        186268        177160        135604        98144.2       67483.4       41722         17342.9      
4600          222452        214080        204804        195573        186408        177329        135880        98407.7       67630.1       41748.2       17340.8      
4650          222468        214127        204884        195686        186553        177504        136151        98667.5       67777         41776.6       17339.1      
4700          222484        214173        204963        195798        186695        177676        136416        98923.9       67924.1       41807.1       17337.7      
4750          222499        214216        205037        195901        186828        177835        136676        99176.5       68070.9       41839.5       17336.8      
4800          222514        214260        205113        196008        186964        178000        136931        99425.5       68217.6       41873.8       17336.2      
4850          222529        214304        205188        196113        187099        178163        137182        99671.4       68364.4       41909.9       17335.9      
4900          222543        214344        205257        196211        187224        178313        137428        99913.5       68510.7       41947.7       17336        
4950          222557        214386        205329        196312        187353        178468        137669        100152        68656.9       41987.1       17336.5      
5000          222571        214427        205399        196411        187479        178621        137907        100388        68803         42028.3       17337.3      
5050          222584        214465        205465        196503        187597        178763        138139        100621        68948.6       42070.8       17338.3      
5100          222598        214504        205533        196599        187719        178909        138368        100850        69093.9       42114.8       17339.7      
5150          222611        214543        205599        196692        187838        179054        138592        101076        69239         42160.3       17341.4      
5200          222623        214578        205659        196776        187947        179185        138813        101300        69383.5       42207         17343.3      
5250          222635        214613        205720        196863        188058        179322        139030        101520        69527.6       42255         17345.6      
5300          222647        214646        205777        196943        188162        179449        139243        101737        69671.4       42304.3       17348.1      
5350          222658        214681        205837        197028        188271        179582        139452        101952        69814.6       42354.6       17350.8      
5400          222670        214713        205893        197107        188373        179705        139658        102164        69957.4       42406.2       17353.8      
5450          222681        214747        205951        197190        188479        179833        139860        102373        70099.6       42458.7       17357        
5500          222692        214779        206006        197267        188578        179952        140058        102579        70241.3       42512.2       17360.5      
5550          222704        214812        206063        197348        188681        180077        140253        102783        70382.4       42566.7       17364.1      
5600          222714        214843        206116        197422        188776        180192        140445        102984        70523         42622.1       17368        
5650          222725        214875        206171        197500        188876        180312        140634        103182        70662.8       42678.3       17372.1      
5700          222735        214905        206222        197572        188968        180424        140820        103378        70802.1       42735.4       17376.4      
5750          222746        214935        206274        197645        189062        180540        141002        103572        70940.9       42793.2       17380.9      
5800          222755        214963        206322        197714        189151        180649        141182        103763        71078.9       42851.8       17385.5      
5850          222765        214991        206371        197782        189239        180756        141359        103952        71216.3       42911         17390.3      
5900          222774        215019        206419        197850        189326        180862        141533        104138        71353         42970.8       17395.3      
5950          222784        215046        206466        197917        189412        180966        141704        104322        71489         43031.3       17400.5      
6000          222793        215074        206513        197983        189497        181069        141873        104504        71624.2       43092.2       17405.8      
6050          222802        215100        206559        198049        189581        181170        142038        104683        71758.8       43153.7       17411.2      
6100          222811        215127        206605        198113        189663        181269        142202        104861        71892.6       43215.7       17416.8      
6150          222820        215153        206650        198176        189744        181367        142362        105036        72025.7       43278.2       17422.5      
6200          222828        215176        206690        198232        189816        181455        142521        105209        72158.1       43341         17428.3      
6250          222837        215201        206733        198294        189897        181553        142677        105380        72289.5       43404.2       17434.3      
6300          222845        215225        206774        198351        189970        181643        142830        105549        72420.4       43467.8       17440.4      
6350          222853        215248        206814        198408        190043        181732        142982        105716        72550.6       43531.8       17446.5      
6400          222862        215273        206857        198469        190121        181826        143131        105881        72679.8       43595.9       17452.8      
6450          222869        215296        206896        198524        190193        181912        143278        106044        72808.3       43660.4       17459.2      
6500          222877        215318        206935        198579        190263        181998        143422        106206        72936.1       43725.2       17465.7      
6550          222885        215343        206977        198638        190338        182088        143565        106365        73062.9       43790         17472.2      
6600          222892        215363        207012        198688        190402        182167        143706        106522        73189.2       43855.2       17478.9      
6650          222900        215384        207048        198739        190469        182249        143844        106678        73314.5       43920.5       17485.6      
6700          222908        215407        207088        198796        190541        182337        143981        106831        73438.8       43985.7       17492.4      
6750          222915        215428        207124        198846        190606        182416        144115        106984        73562.4       44051.2       17499.2      
6800          222921        215447        207157        198893        190667        182491        144248        107134        73685.7       44117         17506.2      
6850          222927        215465        207188        198938        190725        182563        144379        107283        73807.7       44182.6       17513.2      
6900          222934        215485        207223        198987        190789        182641        144508        107430        73928.7       44248.2       17520.2      
6950          222941        215505        207258        199037        190853        182720        144635        107575        74049.2       44313.9       17527.3      
7000          222947        215523        207288        199080        190910        182788        144761        107719        74169         44379.8       17534.4      
7050          222954        215541        207320        199125        190968        182859        144885        107861        74287.9       44445.5       17541.6      
7100          222960        215560        207352        199170        191026        182930        145007        108002        74406         44511.3       17548.9      
7150          222966        215578        207383        199215        191084        183002        145127        108141        74523.1       44576.9       17556.1      
7200          222972        215596        207415        199259        191141        183071        145246        108278        74639.5       44642.5       17563.4      
7250          222978        215613        207444        199301        191195        183138        145363        108414        74754.8       44707.9       17570.7      
7300          222983        215629        207471        199340        191246        183202        145479        108549        74869.8       44773.4       17578.1      
7350          222989        215644        207498        199378        191297        183266        145594        108683        74984.3       44839.1       17585.5      
7400          222994        215660        207526        199418        191349        183329        145706        108815        75097.8       44904.4       17592.9      
7450          223000        215676        207553        199457        191400        183392        145818        108945        75210.4       44969.6       17600.4      
7500          223005        215692        207581        199497        191451        183455        145927        109074        75322.1       45034.7       17607.8      
7550          223011        215708        207609        199537        191503        183518        146035        109202        75433         45099.5       17615.3      
7600          223016        215723        207635        199573        191550        183577        146143        109328        75543.2       45164.3       17622.8      
7650          223021        215739        207663        199613        191601        183639        146248        109453        75652.4       45228.7       17630.2      
7700          223026        215754        207688        199649        191649        183698        146352        109577        75761         45293.2       17637.7      
7750          223031        215769        207714        199686        191696        183757        146455        109700        75868.8       45357.4       17645.2      
7800          223037        215784        207740        199723        191744        183815        146557        109821        75975.7       45421.3       17652.7      
7850          223042        215799        207767        199762        191795        183877        146658        109941        76081.7       45484.9       17660.2      
7900          223046        215812        207789        199793        191836        183928        146757        110060        76187.4       45548.6       17667.7      
7950          223051        215826        207813        199827        191880        183983        146856        110177        76292.1       45612         17675.2      
8000          223056        215840        207837        199861        191924        184038        146953        110294        76396         45675.1       17682.7      
8050          223060        215853        207859        199893        191965        184090        147049        110409        76499.3       45738         17690.2      
8100          223065        215865        207882        199925        192007        184142        147144        110523        76601.8       45800.7       17697.7      
8150          223069        215878        207904        199957        192050        184194        147237        110637        76703.5       45863         17705.1      
8200          223073        215892        207927        199990        192092        184247        147330        110748        76804.4       45925.2       17712.6      
8250          223078        215905        207950        200022        192135        184299        147421        110859        76904.6       45987         17720        
8300          223083        215918        207973        200055        192177        184350        147512        110969        77003.9       46048.5       17727.4      
8350          223087        215931        207996        200088        192219        184402        147601        111077        77102.4       46109.7       17734.8      
8400          223092        215945        208019        200121        192261        184453        147689        111184        77200.1       46170.6       17742.2      
8450          223096        215958        208042        200153        192303        184503        147777        111291        77297         46231.2       17749.6      
8500          223101        215971        208065        200185        192345        184554        147863        111396        77393.1       46291.4       17756.9      
8550          223105        215985        208088        200218        192386        184604        147949        111500        77488.3       46351.3       17764.2      
8600          223110        215998        208110        200250        192427        184653        148033        111602        77582.8       46410.9       17771.5      
8650          223114        216011        208133        200281        192467        184702        148117        111704        77676.5       46470.1       17778.8      
8700          223119        216024        208155        200313        192508        184751        148199        111805        77769.4       46529         17786        
8750          223123        216037        208177        200344        192548        184799        148281        111905        77861.5       46587.5       17793.2      