# Probe 0 (0.0015 0.0015 0)
# Probe 1 (0.0015 0.0015 0.01)
# Probe 2 (0.0015 0.0015 0.02)
# Probe 3 (0.0015 0.0015 0.03)
# Probe 4 (0.0015 0.0015 0.04)
# Probe 5 (0.0015 0.0015 0.05)
# Probe 6 (0.0015 0.0015 0.06)
# Probe 7 (0.0015 0.0015 0.07)
# Probe 8 (0.0015 0.0015 0.08)
# Probe 9 (0.0015 0.0015 0.09)
# Probe 10 (0.0015 0.0015 0.1)
# Time        0             1             2             3             4             5             6             7             8             9             10           
50            0.00209399    0.00209399    0.00209399    0.00209399    0.00209399    0.00209399    0.000396441   0.000396441   0.000396441   0.000396441   0.000396441  
100           0.00209399    0.00209399    0.00209399    0.00209399    0.00209399    0.00209399    0.000396441   0.000396441   0.000396441   0.000396441   0.000396441  
150           0.00209399    0.00209399    0.00209399    0.00209399    0.00209399    0.00209399    0.000396441   0.000396441   0.000396441   0.000396441   0.000396441  
200           0.00209399    0.00209399    0.00209399    0.00209399    0.00209399    0.00209399    0.000396441   0.000396441   0.000396441   0.000396441   0.000396441  
250           0.00209399    0.00209399    0.00209399    0.00209399    0.00209399    0.00209399    0.000396441   0.000396441   0.000396441   0.000396441   0.000396441  
300           0.00209399    0.00209399    0.00209399    0.00209399    0.00209399    0.00209399    0.000396441   0.000396441   0.000396441   0.000396441   0.000396441  
350           0.00209399    0.00209399    0.00209399    0.00209399    0.00209399    0.00209399    0.000396441   0.000396441   0.000396441   0.000396441   0.000396441  
400           0.00209399    0.00209399    0.00209399    0.00209399    0.00209399    0.00209399    0.000396441   0.000396441   0.000396441   0.000396441   0.000396441  
450           0.00209399    0.00209399    0.00209399    0.00209399    0.00209399    0.00209399    0.000396441   0.000396441   0.000396441   0.000396441   0.000396441  
500           0.00209399    0.00209399    0.00209399    0.00209399    0.00209399    0.00209399    0.000396441   0.000396441   0.000396441   0.000396441   0.000396441  
550           0.00209399    0.00209399    0.00209399    0.00209399    0.00209399    0.00209399    0.000396441   0.000396441   0.000396441   0.000396441   0.000396441  
600           0.00209399    0.00209399    0.00209399    0.00209399    0.00209399    0.00209399    0.000396441   0.000396441   0.000396441   0.000396441   0.000396441  
650           0.00209399    0.00209399    0.00209399    0.00209399    0.00209399    0.00209399    0.000396441   0.000396441   0.000396441   0.000396441   0.000396441  
700           0.00209399    0.00209399    0.00209399    0.00209399    0.00209399    0.00209399    0.000396441   0.000396441   0.000396441   0.000396441   0.000396441  
750           0.00209399    0.00209399    0.00209399    0.00209399    0.00209399    0.00209399    0.000396441   0.000396441   0.000396441   0.000396441   0.000396441  
800           0.00209399    0.00209399    0.00209399    0.00209399    0.00209399    0.00209399    0.000396441   0.000396441   0.000396441   0.000396441   0.000396441  
850           0.00209399    0.00209399    0.00209399    0.00209399    0.00209399    0.00209399    0.000396441   0.000396441   0.000396441   0.000396441   0.000396441  
900           0.00209399    0.00209399    0.00209399    0.00209399    0.00209399    0.00209399    0.000396441   0.000396441   0.000396441   0.000396441   0.000396441  
950           0.00209399    0.00209399    0.00209399    0.00209399    0.00209399    0.00209399    0.000396441   0.000396441   0.000396441   0.000396441   0.000396441  
1000          0.00209399    0.00209399    0.00209399    0.00209399    0.00209399    0.00209399    0.000396441   0.000396441   0.000396441   0.000396441   0.000396441  
1050          0.00209399    0.00209399    0.00209399    0.00209399    0.00209399    0.00209399    0.000396441   0.000396441   0.000396441   0.000396441   0.000396441  
1100          0.00209399    0.00209399    0.00209399    0.00209399    0.00209399    0.00209399    0.000396441   0.000396441   0.000396441   0.000396441   0.000396441  
1150          0.00209399    0.00209399    0.00209399    0.00209399    0.00209399    0.00209399    0.000396441   0.000396441   0.000396441   0.000396441   0.000396441  
1200          0.00209399    0.00209399    0.00209399    0.00209399    0.00209399    0.00209399    0.000396441   0.000396441   0.000396441   0.000396441   0.000396441  
1250          0.00209399    0.00209399    0.00209399    0.00209399    0.00209399    0.00209399    0.000396441   0.000396441   0.000396441   0.000396441   0.000396441  
1300          0.00209399    0.00209399    0.00209399    0.00209399    0.00209399    0.00209399    0.000396441   0.000396441   0.000396441   0.000396441   0.000396441  
1350          0.00209399    0.00209399    0.00209399    0.00209399    0.00209399    0.00209399    0.000396441   0.000396441   0.000396441   0.000396441   0.000396441  
1400          0.00209399    0.00209399    0.00209399    0.00209399    0.00209399    0.00209399    0.000396441   0.000396441   0.000396441   0.000396441   0.000396441  
1450          0.00209399    0.00209399    0.00209399    0.00209399    0.00209399    0.00209399    0.000396441   0.000396441   0.000396441   0.000396441   0.000396441  
1500          0.00209399    0.00209399    0.00209399    0.00209399    0.00209399    0.00209399    0.000396441   0.000396441   0.000396441   0.000396441   0.000396441  
1550          0.00209399    0.00209399    0.00209399    0.00209399    0.00209399    0.00209399    0.000396441   0.000396441   0.000396441   0.000396441   0.000396441  
1600          0.00209399    0.00209399    0.00209399    0.00209399    0.00209399    0.00209399    0.000396441   0.000396441   0.000396441   0.000396441   0.000396441  
1650          0.00209399    0.00209399    0.00209399    0.00209399    0.00209399    0.00209399    0.000396441   0.000396441   0.000396441   0.000396441   0.000396441  
1700          0.00209399    0.00209399    0.00209399    0.00209399    0.00209399    0.00209399    0.000396441   0.000396441   0.000396441   0.000396441   0.000396441  
1750          0.00209399    0.00209399    0.00209399    0.00209399    0.00209399    0.00209399    0.000396441   0.000396441   0.000396441   0.000396441   0.000396441  
1800          0.00209399    0.00209399    0.00209399    0.00209399    0.00209399    0.00209399    0.000396441   0.000396441   0.000396441   0.000396441   0.000396441  
1850          0.00209399    0.00209399    0.00209399    0.00209399    0.00209399    0.00209399    0.000396441   0.000396441   0.000396441   0.000396441   0.000396441  
1900          0.00209399    0.00209399    0.00209399    0.00209399    0.00209399    0.00209399    0.000396441   0.000396441   0.000396441   0.000396441   0.000396441  
1950          0.00209399    0.00209399    0.00209399    0.00209399    0.00209399    0.00209399    0.000396441   0.000396441   0.000396441   0.000396441   0.000396441  
2000          0.00209399    0.00209399    0.00209399    0.00209399    0.00209399    0.00209399    0.000396441   0.000396441   0.000396441   0.000396441   0.000396441  
2050          0.00209399    0.00209399    0.00209399    0.00209399    0.00209399    0.00209399    0.000396441   0.000396441   0.000396441   0.000396441   0.000396441  
2100          0.00209399    0.00209399    0.00209399    0.00209399    0.00209399    0.00209399    0.000396441   0.000396441   0.000396441   0.000396441   0.000396441  
2150          0.00209399    0.00209399    0.00209399    0.00209399    0.00209399    0.00209399    0.000396441   0.000396441   0.000396441   0.000396441   0.000396441  
2200          0.00209399    0.00209399    0.00209399    0.00209399    0.00209399    0.00209399    0.000396441   0.000396441   0.000396441   0.000396441   0.000396441  
2250          0.00209399    0.00209399    0.00209399    0.00209399    0.00209399    0.00209399    0.000396441   0.000396441   0.000396441   0.000396441   0.000396441  
2300          0.00209399    0.00209399    0.00209399    0.00209399    0.00209399    0.00209399    0.000396441   0.000396441   0.000396441   0.000396441   0.000396441  
2350          0.00209399    0.00209399    0.00209399    0.00209399    0.00209399    0.00209399    0.000396441   0.000396441   0.000396441   0.000396441   0.000396441  
2400          0.00209399    0.00209399    0.00209399    0.00209399    0.00209399    0.00209399    0.000396441   0.000396441   0.000396441   0.000396441   0.000396441  
2450          0.00209399    0.00209399    0.00209399    0.00209399    0.00209399    0.00209399    0.000396441   0.000396441   0.000396441   0.000396441   0.000396441  
2500          0.00209399    0.00209399    0.00209399    0.00209399    0.00209399    0.00209399    0.000396441   0.000396441   0.000396441   0.000396441   0.000396441  
2550          0.00209399    0.00209399    0.00209399    0.00209399    0.00209399    0.00209399    0.000396441   0.000396441   0.000396441   0.000396441   0.000396441  
2600          0.00209399    0.00209399    0.00209399    0.00209399    0.00209399    0.00209399    0.000396441   0.000396441   0.000396441   0.000396441   0.000396441  
2650          0.00209399    0.00209399    0.00209399    0.00209399    0.00209399    0.00209399    0.000396441   0.000396441   0.000396441   0.000396441   0.000396441  
2700          0.00209399    0.00209399    0.00209399    0.00209399    0.00209399    0.00209399    0.000396441   0.000396441   0.000396441   0.000396441   0.000396441  
2750          0.00209399    0.00209399    0.00209399    0.00209399    0.00209399    0.00209399    0.000396441   0.000396441   0.000396441   0.000396441   0.000396441  
2800          0.00209399    0.00209399    0.00209399    0.00209399    0.00209399    0.00209399    0.000396441   0.000396441   0.000396441   0.000396441   0.000396441  
2850          0.00209399    0.00209399    0.00209399    0.00209399    0.00209399    0.00209399    0.000396441   0.000396441   0.000396441   0.000396441   0.000396441  
2900          0.00209399    0.00209399    0.00209399    0.00209399    0.00209399    0.00209399    0.000396441   0.000396441   0.000396441   0.000396441   0.000396441  
2950          0.00209399    0.00209399    0.00209399    0.00209399    0.00209399    0.00209399    0.000396441   0.000396441   0.000396441   0.000396441   0.000396441  
3000          0.00209399    0.00209399    0.00209399    0.00209399    0.00209399    0.00209399    0.000396441   0.000396441   0.000396441   0.000396441   0.000396441  
3050          0.00209399    0.00209399    0.00209399    0.00209399    0.00209399    0.00209399    0.000396441   0.000396441   0.000396441   0.000396441   0.000396441  
3100          0.00209399    0.00209399    0.00209399    0.00209399    0.00209399    0.00209399    0.000396441   0.000396441   0.000396441   0.000396441   0.000396441  
3150          0.00209399    0.00209399    0.00209399    0.00209399    0.00209399    0.00209399    0.000396441   0.000396441   0.000396441   0.000396441   0.000396441  
3200          0.00209399    0.00209399    0.00209399    0.00209399    0.00209399    0.00209399    0.000396441   0.000396441   0.000396441   0.000396441   0.000396441  
3250          0.00209399    0.00209399    0.00209399    0.00209399    0.00209399    0.00209399    0.000396441   0.000396441   0.000396441   0.000396441   0.000396441  
3300          0.00209399    0.00209399    0.00209399    0.00209399    0.00209399    0.00209399    0.000396441   0.000396441   0.000396441   0.000396441   0.000396441  
3350          0.00209399    0.00209399    0.00209399    0.00209399    0.00209399    0.00209399    0.000396441   0.000396441   0.000396441   0.000396441   0.000396441  
3400          0.00209399    0.00209399    0.00209399    0.00209399    0.00209399    0.00209399    0.000396441   0.000396441   0.000396441   0.000396441   0.000396441  
3450          0.00209399    0.00209399    0.00209399    0.00209399    0.00209399    0.00209399    0.000396441   0.000396441   0.000396441   0.000396441   0.000396441  
3500          0.00209399    0.00209399    0.00209399    0.00209399    0.00209399    0.00209399    0.000396441   0.000396441   0.000396441   0.000396441   0.000396441  
3550          0.00209399    0.00209399    0.00209399    0.00209399    0.00209399    0.00209399    0.000396441   0.000396441   0.000396441   0.000396441   0.000396441  
3600          0.00209399    0.00209399    0.00209399    0.00209399    0.00209399    0.00209399    0.000396441   0.000396441   0.000396441   0.000396441   0.000396441  
3650          0.00209399    0.00209399    0.00209399    0.00209399    0.00209399    0.00209399    0.000396441   0.000396441   0.000396441   0.000396441   0.000396441  
3700          0.00209399    0.00209399    0.00209399    0.00209399    0.00209399    0.00209399    0.000396441   0.000396441   0.000396441   0.000396441   0.000396441  
3750          0.00209399    0.00209399    0.00209399    0.00209399    0.00209399    0.00209399    0.000396441   0.000396441   0.000396441   0.000396441   0.000396441  
3800          0.00209399    0.00209399    0.00209399    0.00209399    0.00209399    0.00209399    0.000396441   0.000396441   0.000396441   0.000396441   0.000396441  
3850          0.00209399    0.00209399    0.00209399    0.00209399    0.00209399    0.00209399    0.000396441   0.000396441   0.000396441   0.000396441   0.000396441  
3900          0.00209399    0.00209399    0.00209399    0.00209399    0.00209399    0.00209399    0.000396441   0.000396441   0.000396441   0.000396441   0.000396441  
3950          0.00209399    0.00209399    0.00209399    0.00209399    0.00209399    0.00209399    0.000396441   0.000396441   0.000396441   0.000396441   0.000396441  
4000          0.00209399    0.00209399    0.00209399    0.00209399    0.00209399    0.00209399    0.000396441   0.000396441   0.000396441   0.000396441   0.000396441  
4050          0.00209399    0.00209399    0.00209399    0.00209399    0.00209399    0.00209399    0.000396441   0.000396441   0.000396441   0.000396441   0.000396441  
4100          0.00209399    0.00209399    0.00209399    0.00209399    0.00209399    0.00209399    0.000396441   0.000396441   0.000396441   0.000396441   0.000396441  
4150          0.00209399    0.00209399    0.00209399    0.00209399    0.00209399    0.00209399    0.000396441   0.000396441   0.000396441   0.000396441   0.000396441  
4200          0.00209399    0.00209399    0.00209399    0.00209399    0.00209399    0.00209399    0.000396441   0.000396441   0.000396441   0.000396441   0.000396441  
4250          0.00209399    0.00209399    0.00209399    0.00209399    0.00209399    0.00209399    0.000396441   0.000396441   0.000396441   0.000396441   0.000396441  
4300          0.00209399    0.00209399    0.00209399    0.00209399    0.00209399    0.00209399    0.000396441   0.000396441   0.000396441   0.000396441   0.000396441  
4350          0.00209399    0.00209399    0.00209399    0.00209399    0.00209399    0.00209399    0.000396441   0.000396441   0.000396441   0.000396441   0.000396441  
4400          0.00209399    0.00209399    0.00209399    0.00209399    0.00209399    0.00209399    0.000396441   0.000396441   0.000396441   0.000396441   0.000396441  
4450          0.00209399    0.00209399    0.00209399    0.00209399    0.00209399    0.00209399    0.000396441   0.000396441   0.000396441   0.000396441   0.000396441  
4500          0.00209399    0.00209399    0.00209399    0.00209399    0.00209399    0.00209399    0.000396441   0.000396441   0.000396441   0.000396441   0.000396441  
4550          0.00209399    0.00209399    0.00209399    0.00209399    0.00209399    0.00209399    0.000396441   0.000396441   0.000396441   0.000396441   0.000396441  
4600          0.00209399    0.00209399    0.00209399    0.00209399    0.00209399    0.00209399    0.000396441   0.000396441   0.000396441   0.000396441   0.000396441  
4650          0.00209399    0.00209399    0.00209399    0.00209399    0.00209399    0.00209399    0.000396441   0.000396441   0.000396441   0.000396441   0.000396441  
4700          0.00209399    0.00209399    0.00209399    0.00209399    0.00209399    0.00209399    0.000396441   0.000396441   0.000396441   0.000396441   0.000396441  
4750          0.00209399    0.00209399    0.00209399    0.00209399    0.00209399    0.00209399    0.000396441   0.000396441   0.000396441   0.000396441   0.000396441  
4800          0.00209399    0.00209399    0.00209399    0.00209399    0.00209399    0.00209399    0.000396441   0.000396441   0.000396441   0.000396441   0.000396441  
4850          0.00209399    0.00209399    0.00209399    0.00209399    0.00209399    0.00209399    0.000396441   0.000396441   0.000396441   0.000396441   0.000396441  
4900          0.00209399    0.00209399    0.00209399    0.00209399    0.00209399    0.00209399    0.000396441   0.000396441   0.000396441   0.000396441   0.000396441  
4950          0.00209399    0.00209399    0.00209399    0.00209399    0.00209399    0.00209399    0.000396441   0.000396441   0.000396441   0.000396441   0.000396441  
5000          0.00209399    0.00209399    0.00209399    0.00209399    0.00209399    0.00209399    0.000396441   0.000396441   0.000396441   0.000396441   0.000396441  
5050          0.00209399    0.00209399    0.00209399    0.00209399    0.00209399    0.00209399    0.000396441   0.000396441   0.000396441   0.000396441   0.000396441  
5100          0.00209399    0.00209399    0.00209399    0.00209399    0.00209399    0.00209399    0.000396441   0.000396441   0.000396441   0.000396441   0.000396441  
5150          0.00209399    0.00209399    0.00209399    0.00209399    0.00209399    0.00209399    0.000396441   0.000396441   0.000396441   0.000396441   0.000396441  
5200          0.00209399    0.00209399    0.00209399    0.00209399    0.00209399    0.00209399    0.000396441   0.000396441   0.000396441   0.000396441   0.000396441  
5250          0.00209399    0.00209399    0.00209399    0.00209399    0.00209399    0.00209399    0.000396441   0.000396441   0.000396441   0.000396441   0.000396441  
5300          0.00209399    0.00209399    0.00209399    0.00209399    0.00209399    0.00209399    0.000396441   0.000396441   0.000396441   0.000396441   0.000396441  
5350          0.00209399    0.00209399    0.00209399    0.00209399    0.00209399    0.00209399    0.000396441   0.000396441   0.000396441   0.000396441   0.000396441  
5400          0.00209399    0.00209399    0.00209399    0.00209399    0.00209399    0.00209399    0.000396441   0.000396441   0.000396441   0.000396441   0.000396441  
5450          0.00209399    0.00209399    0.00209399    0.00209399    0.00209399    0.00209399    0.000396441   0.000396441   0.000396441   0.000396441   0.000396441  
5500          0.00209399    0.00209399    0.00209399    0.00209399    0.00209399    0.00209399    0.000396441   0.000396441   0.000396441   0.000396441   0.000396441  
5550          0.00209399    0.00209399    0.00209399    0.00209399    0.00209399    0.00209399    0.000396441   0.000396441   0.000396441   0.000396441   0.000396441  
5600          0.00209399    0.00209399    0.00209399    0.00209399    0.00209399    0.00209399    0.000396441   0.000396441   0.000396441   0.000396441   0.000396441  
5650          0.00209399    0.00209399    0.00209399    0.00209399    0.00209399    0.00209399    0.000396441   0.000396441   0.000396441   0.000396441   0.000396441  
5700          0.00209399    0.00209399    0.00209399    0.00209399    0.00209399    0.00209399    0.000396441   0.000396441   0.000396441   0.000396441   0.000396441  
5750          0.00209399    0.00209399    0.00209399    0.00209399    0.00209399    0.00209399    0.000396441   0.000396441   0.000396441   0.000396441   0.000396441  
5800          0.00209399    0.00209399    0.00209399    0.00209399    0.00209399    0.00209399    0.000396441   0.000396441   0.000396441   0.000396441   0.000396441  
5850          0.00209399    0.00209399    0.00209399    0.00209399    0.00209399    0.00209399    0.000396441   0.000396441   0.000396441   0.000396441   0.000396441  
5900          0.00209399    0.00209399    0.00209399    0.00209399    0.00209399    0.00209399    0.000396441   0.000396441   0.000396441   0.000396441   0.000396441  
5950          0.00209399    0.00209399    0.00209399    0.00209399    0.00209399    0.00209399    0.000396441   0.000396441   0.000396441   0.000396441   0.000396441  
6000          0.00209399    0.00209399    0.00209399    0.00209399    0.00209399    0.00209399    0.000396441   0.000396441   0.000396441   0.000396441   0.000396441  
6050          0.00209399    0.00209399    0.00209399    0.00209399    0.00209399    0.00209399    0.000396441   0.000396441   0.000396441   0.000396441   0.000396441  
6100          0.00209399    0.00209399    0.00209399    0.00209399    0.00209399    0.00209399    0.000396441   0.000396441   0.000396441   0.000396441   0.000396441  
6150          0.00209399    0.00209399    0.00209399    0.00209399    0.00209399    0.00209399    0.000396441   0.000396441   0.000396441   0.000396441   0.000396441  
6200          0.00209399    0.00209399    0.00209399    0.00209399    0.00209399    0.00209399    0.000396441   0.000396441   0.000396441   0.000396441   0.000396441  
6250          0.00209399    0.00209399    0.00209399    0.00209399    0.00209399    0.00209399    0.000396441   0.000396441   0.000396441   0.000396441   0.000396441  
6300          0.00209399    0.00209399    0.00209399    0.00209399    0.00209399    0.00209399    0.000396441   0.000396441   0.000396441   0.000396441   0.000396441  
6350          0.00209399    0.00209399    0.00209399    0.00209399    0.00209399    0.00209399    0.000396441   0.000396441   0.000396441   0.000396441   0.000396441  
6400          0.00209399    0.00209399    0.00209399    0.00209399    0.00209399    0.00209399    0.000396441   0.000396441   0.000396441   0.000396441   0.000396441  
6450          0.00209399    0.00209399    0.00209399    0.00209399    0.00209399    0.00209399    0.000396441   0.000396441   0.000396441   0.000396441   0.000396441  
6500          0.00209399    0.00209399    0.00209399    0.00209399    0.00209399    0.00209399    0.000396441   0.000396441   0.000396441   0.000396441   0.000396441  
6550          0.00209399    0.00209399    0.00209399    0.00209399    0.00209399    0.00209399    0.000396441   0.000396441   0.000396441   0.000396441   0.000396441  
6600          0.00209399    0.00209399    0.00209399    0.00209399    0.00209399    0.00209399    0.000396441   0.000396441   0.000396441   0.000396441   0.000396441  
6650          0.00209399    0.00209399    0.00209399    0.00209399    0.00209399    0.00209399    0.000396441   0.000396441   0.000396441   0.000396441   0.000396441  
6700          0.00209399    0.00209399    0.00209399    0.00209399    0.00209399    0.00209399    0.000396441   0.000396441   0.000396441   0.000396441   0.000396441  
6750          0.00209399    0.00209399    0.00209399    0.00209399    0.00209399    0.00209399    0.000396441   0.000396441   0.000396441   0.000396441   0.000396441  
6800          0.00209399    0.00209399    0.00209399    0.00209399    0.00209399    0.00209399    0.000396441   0.000396441   0.000396441   0.000396441   0.000396441  
6850          0.00209399    0.00209399    0.00209399    0.00209399    0.00209399    0.00209399    0.000396441   0.000396441   0.000396441   0.000396441   0.000396441  
6900          0.00209399    0.00209399    0.00209399    0.00209399    0.00209399    0.00209399    0.000396441   0.000396441   0.000396441   0.000396441   0.000396441  
6950          0.00209399    0.00209399    0.00209399    0.00209399    0.00209399    0.00209399    0.000396441   0.000396441   0.000396441   0.000396441   0.000396441  
7000          0.00209399    0.00209399    0.00209399    0.00209399    0.00209399    0.00209399    0.000396441   0.000396441   0.000396441   0.000396441   0.000396441  
7050          0.00209399    0.00209399    0.00209399    0.00209399    0.00209399    0.00209399    0.000396441   0.000396441   0.000396441   0.000396441   0.000396441  
7100          0.00209399    0.00209399    0.00209399    0.00209399    0.00209399    0.00209399    0.000396441   0.000396441   0.000396441   0.000396441   0.000396441  
7150          0.00209399    0.00209399    0.00209399    0.00209399    0.00209399    0.00209399    0.000396441   0.000396441   0.000396441   0.000396441   0.000396441  
7200          0.00209399    0.00209399    0.00209399    0.00209399    0.00209399    0.00209399    0.000396441   0.000396441   0.000396441   0.000396441   0.000396441  
7250          0.00209399    0.00209399    0.00209399    0.00209399    0.00209399    0.00209399    0.000396441   0.000396441   0.000396441   0.000396441   0.000396441  
7300          0.00209399    0.00209399    0.00209399    0.00209399    0.00209399    0.00209399    0.000396441   0.000396441   0.000396441   0.000396441   0.000396441  
7350          0.00209399    0.00209399    0.00209399    0.00209399    0.00209399    0.00209399    0.000396441   0.000396441   0.000396441   0.000396441   0.000396441  
7400          0.00209399    0.00209399    0.00209399    0.00209399    0.00209399    0.00209399    0.000396441   0.000396441   0.000396441   0.000396441   0.000396441  
7450          0.00209399    0.00209399    0.00209399    0.00209399    0.00209399    0.00209399    0.000396441   0.000396441   0.000396441   0.000396441   0.000396441  
7500          0.00209399    0.00209399    0.00209399    0.00209399    0.00209399    0.00209399    0.000396441   0.000396441   0.000396441   0.000396441   0.000396441  
7550          0.00209399    0.00209399    0.00209399    0.00209399    0.00209399    0.00209399    0.000396441   0.000396441   0.000396441   0.000396441   0.000396441  
7600          0.00209399    0.00209399    0.00209399    0.00209399    0.00209399    0.00209399    0.000396441   0.000396441   0.000396441   0.000396441   0.000396441  
7650          0.00209399    0.00209399    0.00209399    0.00209399    0.00209399    0.00209399    0.000396441   0.000396441   0.000396441   0.000396441   0.000396441  
7700          0.00209399    0.00209399    0.00209399    0.00209399    0.00209399    0.00209399    0.000396441   0.000396441   0.000396441   0.000396441   0.000396441  
7750          0.00209399    0.00209399    0.00209399    0.00209399    0.00209399    0.00209399    0.000396441   0.000396441   0.000396441   0.000396441   0.000396441  
7800          0.00209399    0.00209399    0.00209399    0.00209399    0.00209399    0.00209399    0.000396441   0.000396441   0.000396441   0.000396441   0.000396441  
7850          0.00209399    0.00209399    0.00209399    0.00209399    0.00209399    0.00209399    0.000396441   0.000396441   0.000396441   0.000396441   0.000396441  
7900          0.00209399    0.00209399    0.00209399    0.00209399    0.00209399    0.00209399    0.000396441   0.000396441   0.000396441   0.000396441   0.000396441  
7950          0.00209399    0.00209399    0.00209399    0.00209399    0.00209399    0.00209399    0.000396441   0.000396441   0.000396441   0.000396441   0.000396441  
8000          0.00209399    0.00209399    0.00209399    0.00209399    0.00209399    0.00209399    0.000396441   0.000396441   0.000396441   0.000396441   0.000396441  
8050          0.00209399    0.00209399    0.00209399    0.00209399    0.00209399    0.00209399    0.000396441   0.000396441   0.000396441   0.000396441   0.000396441  
8100          0.00209399    0.00209399    0.00209399    0.00209399    0.00209399    0.00209399    0.000396441   0.000396441   0.000396441   0.000396441   0.000396441  
8150          0.00209399    0.00209399    0.00209399    0.00209399    0.00209399    0.00209399    0.000396441   0.000396441   0.000396441   0.000396441   0.000396441  
8200          0.00209399    0.00209399    0.00209399    0.00209399    0.00209399    0.00209399    0.000396441   0.000396441   0.000396441   0.000396441   0.000396441  
8250          0.00209399    0.00209399    0.00209399    0.00209399    0.00209399    0.00209399    0.000396441   0.000396441   0.000396441   0.000396441   0.000396441  
8300          0.00209399    0.00209399    0.00209399    0.00209399    0.00209399    0.00209399    0.000396441   0.000396441   0.000396441   0.000396441   0.000396441  
8350          0.00209399    0.00209399    0.00209399    0.00209399    0.00209399    0.00209399    0.000396441   0.000396441   0.000396441   0.000396441   0.000396441  
8400          0.00209399    0.00209399    0.00209399    0.00209399    0.00209399    0.00209399    0.000396441   0.000396441   0.000396441   0.000396441   0.000396441  
8450          0.00209399    0.00209399    0.00209399    0.00209399    0.00209399    0.00209399    0.000396441   0.000396441   0.000396441   0.000396441   0.000396441  
8500          0.00209399    0.00209399    0.00209399    0.00209399    0.00209399    0.00209399    0.000396441   0.000396441   0.000396441   0.000396441   0.000396441  
8550          0.00209399    0.00209399    0.00209399    0.00209399    0.00209399    0.00209399    0.000396441   0.000396441   0.000396441   0.000396441   0.000396441  
8600          0.00209399    0.00209399    0.00209399    0.00209399    0.00209399    0.00209399    0.000396441   0.000396441   0.000396441   0.000396441   0.000396441  
8650          0.00209399    0.00209399    0.00209399    0.00209399    0.00209399    0.00209399    0.000396441   0.000396441   0.000396441   0.000396441   0.000396441  
8700          0.00209399    0.00209399    0.00209399    0.00209399    0.00209399    0.00209399    0.000396441   0.000396441   0.000396441   0.000396441   0.000396441  
8750          0.00209399    0.00209399    0.00209399    0.00209399    0.00209399    0.00209399    0.000396441   0.000396441   0.000396441   0.000396441   0.000396441  