# Probe 0 (0.0015 0.0015 0)
# Probe 1 (0.0015 0.0015 0.01)
# Probe 2 (0.0015 0.0015 0.02)
# Probe 3 (0.0015 0.0015 0.03)
# Probe 4 (0.0015 0.0015 0.04)
# Probe 5 (0.0015 0.0015 0.05)
# Probe 6 (0.0015 0.0015 0.06)
# Probe 7 (0.0015 0.0015 0.07)
# Probe 8 (0.0015 0.0015 0.08)
# Probe 9 (0.0015 0.0015 0.09)
# Probe 10 (0.0015 0.0015 0.1)
# Time        0             1             2             3             4             5             6             7             8             9             10           
50            (-13.1466 -13.1466 -7.2731e+06) (-5.1233 -5.1233 -5.50239e+06) (1.95176 1.95176 -2.74157e+06) (2.5348 2.5348 -1.02105e+06) (2.31189 2.31189 -299147) (-0.0268429 -0.0268429 -76117) (-0.125176 -0.125176 1980.58) (-0.0471566 -0.0471566 2.77158) (-0.108093 -0.108093 -37.9198) (2.7465 2.7465 -48535.1) (71.6198 71.6198 -1.49395e+07)
100           (-20.0855 -20.0855 -5.18602e+06) (-5.71765 -5.71765 -4.62359e+06) (-2.50338 -2.50338 -3.38438e+06) (1.64078 1.64078 -1.96153e+06) (-7.68138 -7.68138 -920358) (-31.268 -31.268 -746758) (-0.111154 -0.111154 1746.14) (-0.00527245 -0.00527246 13.6154) (0.102466 0.102466 -405.481) (15.4414 15.4414 -186139) (-112.591 -112.591 -1.22791e+07)
150           (-12.4392 -12.4392 -4.23983e+06) (-7.5668 -7.5668 -3.94722e+06) (-5.85571 -5.85571 -3.27196e+06) (-2.92182 -2.92182 -2.34255e+06) (2.63163 2.63163 -1.42721e+06) (-46.1164 -46.1164 -1.56118e+06) (2.95732 2.95732 -14581.1) (0.000104153 0.000104153 26.8372) (0.259785 0.259785 -1965.85) (20.3311 20.3311 -388142) (-9.82653 -9.82653 -1.06131e+07)
200           (-10.6626 -10.6626 -3.67395e+06) (-6.54711 -6.54711 -3.48948e+06) (-5.95317 -5.95317 -3.05922e+06) (-5.04054 -5.04054 -2.43058e+06) (0.261382 0.261382 -1.72492e+06) (-130.034 -130.034 -2.25492e+06) (3.26304 3.26304 -63942.1) (0.021852 0.021852 -76.3682) (0.451253 0.451253 -6004.4) (22.5697 22.5697 -614672) (-56.7923 -56.7923 -9.46216e+06)
250           (-8.18516 -8.18516 -3.29043e+06) (-10.2305 -10.2305 -3.16214e+06) (-0.781875 -0.781875 -2.86213e+06) (-9.23661 -9.23661 -2.41237e+06) (-0.278386 -0.278386 -1.874e+06) (-165.749 -165.749 -2.74081e+06) (9.0902 9.0902 -157710) (0.0849444 0.0849444 -649.317) (1.08147 1.08147 -13822.4) (30.2305 30.2305 -836995) (-54.9778 -54.9778 -8.61156e+06)
300           (0.942389 0.942389 -3.01152e+06) (-10.7165 -10.7165 -2.91675e+06) (4.25157 4.25157 -2.69491e+06) (-10.3149 -10.3149 -2.35747e+06) (2.66448 2.66448 -1.93799e+06) (9.19933 9.19933 -3.0491e+06) (-18.1728 -18.1728 -298738) (-0.305747 -0.305747 -2351.8) (-1.20053 -1.20053 -26314) (-17.631 -17.631 -1.04029e+06) (190.145 190.145 -7.9523e+06)
350           (0.968853 0.968853 -2.79885e+06) (2.62421 2.62421 -2.7257e+06) (-1.21812 -1.21812 -2.55433e+06) (3.06335 3.06335 -2.29108e+06) (1.42225 1.42225 -1.95529e+06) (-36.7257 -36.7257 -3.23234e+06) (-2.5397 -2.5397 -482382) (-18.8808 -18.8808 -6117.42) (0.0308848 0.0308848 -43825.6) (8.55875 8.55875 -1.21925e+06) (-43.8514 -43.8514 -7.42266e+06)
400           (-5.67385 -5.67385 -2.63058e+06) (-1.47138 -1.47138 -2.57212e+06) (5.39739 5.39739 -2.43506e+06) (1.62906 1.62906 -2.2229e+06) (-8.75686 -8.75686 -1.9473e+06) (-42.7793 -42.7793 -3.33333e+06) (18.235 18.235 -699050) (13.3549 13.3549 -13035.2) (1.11762 1.11762 -66245.2) (-2.53641 -2.53641 -1.37344e+06) (-46.4083 -46.4083 -6.98566e+06)
450           (-4.49018 -4.49018 -2.49339e+06) (-0.268745 -0.268745 -2.44531e+06) (8.48021 8.48021 -2.33252e+06) (2.9034 2.9034 -2.15692e+06) (-3.53289 -3.53289 -1.92551e+06) (140.907 140.907 -3.38213e+06) (-25.0276 -25.0276 -937561) (26.5184 26.5184 -24257.8) (-2.07861 -2.07861 -93095.8) (-43.9129 -43.9129 -1.50472e+06) (43.7276 43.7276 -6.61727e+06)
500           (2.1393 2.1393 -2.37875e+06) (-1.39171 -1.39171 -2.33826e+06) (-2.21251 -2.21251 -2.24322e+06) (-2.32282 -2.32282 -2.09462e+06) (0.685658 0.685658 -1.89649e+06) (-56.541 -56.541 -3.39694e+06) (14.783 14.783 -1.18715e+06) (1.43121 1.43121 -40844.1) (2.71371 2.71371 -123741) (9.40373 9.40373 -1.61572e+06) (-5.50869 -5.50869 -6.3014e+06)
550           (-2.23616 -2.23616 -2.28097e+06) (-2.32991 -2.32991 -2.24619e+06) (-6.25331 -6.25331 -2.16453e+06) (-9.36864 -9.36864 -2.03644e+06) (-9.24602 -9.24602 -1.86383e+06) (7.92458 7.92458 -3.39071e+06) (-9.56644 -9.56644 -1.43843e+06) (-1.89917 -1.89917 -63589.4) (-1.88677 -1.88677 -157459) (-7.97137 -7.97137 -1.70922e+06) (32.5915 32.5915 -6.02668e+06)
600           (-4.36709 -4.36709 -2.19606e+06) (-5.0593 -5.0593 -2.1657e+06) (-6.14435 -6.14435 -2.09439e+06) (-1.94161 -1.94161 -1.98226e+06) (-7.91986 -7.91986 -1.83031e+06) (-106.189 -106.189 -3.37051e+06) (47.7564 47.7564 -1.6844e+06) (-3.91606 -3.91606 -93033) (12.0071 12.0071 -193564) (10.4622 10.4622 -1.78782e+06) (-10.7354 -10.7354 -5.78494e+06)
650           (4.51089 4.51089 -2.12125e+06) (7.06207 7.06207 -2.09439e+06) (9.43153 9.43153 -2.03131e+06) (2.36724 2.36724 -1.93194e+06) (15.2502 15.2502 -1.79662e+06) (8.85345 8.85345 -3.34183e+06) (-52.2157 -52.2157 -1.92008e+06) (27.7411 27.7411 -129422) (-16.7936 -16.7936 -231479) (3.65245 3.65245 -1.85377e+06) (23.6012 23.6012 -5.57009e+06)
700           (5.79464 5.79464 -2.05455e+06) (9.00993 9.00993 -2.03052e+06) (7.00153 7.00153 -1.97412e+06) (0.682339 0.682339 -1.88516e+06) (9.45349 9.45349 -1.7636e+06) (6.01053 6.01053 -3.30771e+06) (-43.9063 -43.9063 -2.14227e+06) (36.6073 36.6073 -172759) (-27.2142 -27.2142 -270715) (8.23179 8.23179 -1.90906e+06) (18.4825 18.4825 -5.3775e+06)
750           (6.68359 6.68359 -1.9945e+06) (9.67204 9.67204 -1.97281e+06) (5.4352 5.4352 -1.92193e+06) (0.746154 0.746154 -1.84159e+06) (6.34502 6.34501 -1.73152e+06) (5.96444 5.96444 -3.27037e+06) (-38.1567 -38.1567 -2.34912e+06) (36.1123 36.1123 -222793) (-31.3536 -31.3536 -310899) (12.3486 12.3486 -1.95532e+06) (14.8578 14.8578 -5.20358e+06)
800           (-3.49648 -3.49648 -1.94011e+06) (-6.63995 -6.63995 -1.92037e+06) (-12.6403 -12.6403 -1.87407e+06) (-14.8971 -14.8971 -1.80083e+06) (-7.55694 -7.55694 -1.70004e+06) (-45.4973 -45.4973 -3.23176e+06) (15.6659 15.6659 -2.53986e+06) (5.64817 5.64817 -279104) (4.90083 4.90083 -351754) (5.47374 5.47374 -1.99396e+06) (-7.99193 -7.99193 -5.04549e+06)
850           (0.22255 0.22255 -1.89034e+06) (-5.36626 -5.36626 -1.87225e+06) (-12.5371 -12.5371 -1.82983e+06) (-12.413 -12.413 -1.76272e+06) (-4.63019 -4.63019 -1.67025e+06) (-40.3887 -40.3887 -3.1916e+06) (13.2948 13.2948 -2.71451e+06) (5.94852 5.94852 -341090) (4.73396 4.73396 -393091) (4.60871 4.60871 -2.02614e+06) (-6.73554 -6.73554 -4.90098e+06)
900           (7.07856 7.07856 -1.84456e+06) (2.89102 2.89102 -1.82789e+06) (2.55553 2.55553 -1.78882e+06) (2.27641 2.27641 -1.727e+06) (-4.33508 -4.33508 -1.64198e+06) (316.507 316.507 -3.15188e+06) (-87.4673 -87.4673 -2.87361e+06) (-45.1308 -45.1308 -408114) (-33.3409 -33.3409 -434780) (-28.4283 -28.4283 -2.05286e+06) (88.3273 88.3273 -4.76822e+06)
950           (-0.311199 -0.311199 -1.80223e+06) (-0.125939 -0.125939 -1.7868e+06) (-1.99796 -1.99796 -1.75064e+06) (-3.8877 -3.8877 -1.69339e+06) (-2.67975 -2.67975 -1.61435e+06) (-195.695 -195.695 -3.11114e+06) (64.0688 64.0688 -3.01786e+06) (39.4122 39.4122 -479489) (27.9038 27.9038 -476741) (21.2246 21.2246 -2.07492e+06) (-74.1499 -74.1499 -4.64572e+06)
1000          (2.29003 2.29003 -1.76294e+06) (-17.018 -17.018 -1.74859e+06) (-9.3772 -9.3772 -1.71497e+06) (14.8601 14.8601 -1.66174e+06) (-2.59422 -2.59422 -1.58829e+06) (-26.3848 -26.3848 -3.07198e+06) (5.02831 5.02831 -3.1483e+06) (1.25263 1.25263 -554479) (0.707039 0.707039 -518926) (0.720009 0.720009 -2.09307e+06) (7.09875 7.09875 -4.53217e+06)
1050          (0.731109 0.731109 -1.72632e+06) (14.5519 14.5519 -1.71291e+06) (6.55383 6.55383 -1.68153e+06) (-11.7788 -11.7788 -1.63188e+06) (1.50529 1.50529 -1.56327e+06) (50.635 50.635 -3.03283e+06) (-14.1306 -14.1306 -3.26587e+06) (-11.3791 -11.3791 -632331) (-7.5425 -7.5425 -561284) (-4.17666 -4.17666 -2.10789e+06) (12.5403 12.5403 -4.42658e+06)
1100          (6.49987 6.49987 -1.69207e+06) (-16.1736 -16.1736 -1.67951e+06) (-2.89536 -2.89536 -1.6501e+06) (13.7756 13.7756 -1.60357e+06) (-3.57679 -3.57679 -1.53946e+06) (137.641 137.641 -2.99531e+06) (-21.6239 -21.6239 -3.37183e+06) (-24.3722 -24.3722 -712374) (-15.6613 -15.6613 -603802) (-7.78669 -7.78669 -2.1199e+06) (28.751 28.751 -4.32803e+06)
1150          (5.74089 5.74089 -1.65988e+06) (-14.7362 -14.7362 -1.64807e+06) (-0.743298 -0.743298 -1.62044e+06) (13.9437 13.9437 -1.57673e+06) (-6.79387 -6.79387 -1.5165e+06) (132.12 132.12 -2.95822e+06) (-18.0315 -18.0315 -3.46715e+06) (-24.6241 -24.6241 -794010) (-15.6282 -15.6282 -646487) (-6.86968 -6.86968 -2.12953e+06) (27.3975 27.3975 -4.23581e+06)
1200          (-3.97239 -3.97239 -1.62956e+06) (-1.54821 -1.54821 -1.61843e+06) (-1.03098 -1.03098 -1.5924e+06) (-0.158527 -0.158527 -1.55125e+06) (-8.10385 -8.10385 -1.49459e+06) (-99.378 -99.378 -2.9224e+06) (23.4596 23.4596 -3.55278e+06) (21.3007 21.3007 -876642) (13.186 13.186 -689322) (3.99669 3.99669 -2.13715e+06) (-12.7061 -12.7061 -4.14927e+06)
1250          (-4.14081 -4.14081 -1.60093e+06) (-1.25486 -1.25486 -1.59042e+06) (-0.519191 -0.51919 -1.56584e+06) (-1.53002 -1.53002 -1.527e+06) (-3.3609 -3.3609 -1.4735e+06) (-99.5395 -99.5395 -2.88735e+06) (1.81298 1.81298 -3.62971e+06) (26.7291 26.7291 -959781) (16.5847 16.5847 -732313) (7.45836 7.45836 -2.14309e+06) (-18.7708 -18.7708 -4.06783e+06)
1300          (-4.05559 -4.05559 -1.57384e+06) (-1.12408 -1.12408 -1.56388e+06) (-0.639265 -0.639265 -1.54063e+06) (-1.66676 -1.66676 -1.50388e+06) (-1.09064 -1.09064 -1.45326e+06) (-94.7716 -94.7716 -2.85329e+06) (-8.34824 -8.34824 -3.69873e+06) (19.7785 19.7785 -1.04296e+06) (16.4945 16.4945 -775444) (7.47117 7.47117 -2.14763e+06) (-18.6375 -18.6375 -3.99104e+06)
1350          (-4.0142 -4.0142 -1.54815e+06) (-1.02497 -1.02497 -1.5387e+06) (-0.866223 -0.866223 -1.51666e+06) (-1.23853 -1.23853 -1.48182e+06) (-0.86909 -0.86909 -1.43383e+06) (-91.8262 -91.8262 -2.82024e+06) (-13.197 -13.197 -3.7606e+06) (13.4472 13.4472 -1.12577e+06) (14.9909 14.9909 -818699) (6.74169 6.74169 -2.15102e+06) (-18.0988 -18.0988 -3.91846e+06)
1400          (-3.9119 -3.9119 -1.52374e+06) (-0.977511 -0.977511 -1.51476e+06) (-0.969857 -0.969856 -1.49382e+06) (-0.853738 -0.853738 -1.46073e+06) (-1.35009 -1.35009 -1.41516e+06) (-89.0717 -89.0717 -2.78819e+06) (-16.0732 -16.0732 -3.81604e+06) (8.92189 8.92189 -1.20787e+06) (12.5579 12.5579 -862058) (5.4818 5.4818 -2.15346e+06) (-17.3521 -17.3521 -3.84975e+06)
1450          (-3.76968 -3.76968 -1.5005e+06) (-0.95229 -0.95229 -1.49196e+06) (-0.959735 -0.959735 -1.47203e+06) (-0.626403 -0.626403 -1.44056e+06) (-1.99035 -1.99035 -1.39721e+06) (-86.3352 -86.3352 -2.75711e+06) (-17.9645 -17.9645 -3.86569e+06) (5.84548 5.84548 -1.28896e+06) (9.99476 9.99476 -905493) (3.91363 3.91363 -2.15514e+06) (-16.5668 -16.5668 -3.78458e+06)
1500          (-3.60289 -3.60289 -1.47836e+06) (-0.927295 -0.927295 -1.47021e+06) (-0.892111 -0.89211 -1.45122e+06) (-0.528813 -0.528813 -1.42123e+06) (-2.58815 -2.58815 -1.37993e+06) (-83.5878 -83.5878 -2.72698e+06) (-19.269 -19.269 -3.91013e+06) (3.74763 3.74763 -1.36878e+06) (7.71973 7.71973 -948974) (2.29056 2.29056 -2.15622e+06) (-15.8265 -15.8265 -3.72266e+06)
1550          (-3.43003 -3.43003 -1.45721e+06) (-0.895212 -0.895212 -1.44944e+06) (-0.806236 -0.806236 -1.43132e+06) (-0.51109 -0.51109 -1.4027e+06) (-3.07749 -3.07749 -1.3633e+06) (-80.843 -80.843 -2.69776e+06) (-20.1893 -20.1893 -3.94989e+06) (2.28248 2.28248 -1.44714e+06) (5.86994 5.86994 -992467) (0.795016 0.795016 -2.15684e+06) (-15.1553 -15.1553 -3.66375e+06)
1600          (4.5894 4.5894 -1.43704e+06) (3.54134 3.54134 -1.4296e+06) (2.87199 2.87199 -1.41227e+06) (10.3609 10.3609 -1.3849e+06) (-5.40852 -5.40852 -1.34719e+06) (345.299 345.299 -2.66913e+06) (-11.4441 -11.4441 -3.98543e+06) (-82.1143 -82.1143 -1.52386e+06) (-57.6871 -57.6871 -1.03593e+06) (-10.333 -10.333 -2.15712e+06) (53 53 -3.60761e+06)
1650          (4.18296 4.18296 -1.41774e+06) (7.21266 7.21266 -1.41061e+06) (-1.90649 -1.90649 -1.394e+06) (12.6145 12.6145 -1.36777e+06) (-3.58725 -3.58725 -1.33164e+06) (331.405 331.405 -2.64147e+06) (-7.7594 -7.7594 -4.0172e+06) (-83.3544 -83.3544 -1.59878e+06) (-60.1825 -60.1825 -1.07932e+06) (-10.2253 -10.2253 -2.15716e+06) (53.9309 53.9309 -3.55408e+06)
1700          (3.91031 3.91031 -1.39922e+06) (9.25478 9.25478 -1.39238e+06) (-2.92469 -2.92469 -1.37645e+06) (11.8496 11.8496 -1.3513e+06) (-2.31535 -2.31535 -1.3167e+06) (319.861 319.861 -2.6148e+06) (-4.24231 -4.24231 -4.04558e+06) (-81.4897 -81.4897 -1.67182e+06) (-60.3741 -60.3741 -1.1226e+06) (-9.80674 -9.80674 -2.15706e+06) (52.891 52.891 -3.50295e+06)
1750          (3.73984 3.73984 -1.38144e+06) (9.85817 9.85817 -1.37487e+06) (-2.94096 -2.94096 -1.35959e+06) (10.877 10.877 -1.33547e+06) (-1.43317 -1.43317 -1.30229e+06) (309.084 309.084 -2.58897e+06) (-1.04565 -1.04565 -4.07087e+06) (-79.285 -79.285 -1.74292e+06) (-60.2675 -60.2675 -1.16573e+06) (-9.42927 -9.42927 -2.15689e+06) (51.2587 51.2587 -3.45409e+06)
1800          (-1.90184 -1.90184 -1.36438e+06) (0.245331 0.245331 -1.35786e+06) (-1.42968 -1.42968 -1.34368e+06) (-0.156245 -0.156245 -1.32042e+06) (2.11232 2.11232 -1.28791e+06) (-32.9608 -32.9608 -2.5633e+06) (-0.441507 -0.441507 -4.09329e+06) (11.7922 11.7922 -1.81198e+06) (9.10473 9.10473 -1.20867e+06) (1.35067 1.35067 -2.15672e+06) (-9.05509 -9.05509 -3.40734e+06)
1850          (-4.35201 -4.35201 -1.34798e+06) (-4.71254 -4.71254 -1.34182e+06) (6.08451 6.08451 -1.32826e+06) (3.30372 3.30372 -1.30544e+06) (-2.30052 -2.30052 -1.27457e+06) (0.413528 0.413528 -2.53874e+06) (-0.81468 -0.81468 -4.11322e+06) (11.965 11.965 -1.879e+06) (9.86046 9.86046 -1.25137e+06) (1.5046 1.5046 -2.15661e+06) (-13.0068 -13.0068 -3.36257e+06)
1900          (-7.0497 -7.0497 -1.33224e+06) (-8.19979 -8.19979 -1.32641e+06) (15.268 15.268 -1.31325e+06) (1.5625 1.5625 -1.29114e+06) (-3.84499 -3.84499 -1.26168e+06) (-6.84225 -6.84225 -2.51504e+06) (-1.92086 -1.92086 -4.13089e+06) (18.6811 18.6811 -1.94397e+06) (15.6874 15.6874 -1.2938e+06) (2.38526 2.38526 -2.15661e+06) (-16.3448 -16.3448 -3.31967e+06)
1950          (-6.85704 -6.85704 -1.31708e+06) (-7.4746 -7.4746 -1.31148e+06) (17.4294 17.4294 -1.29877e+06) (-1.9468 -1.9468 -1.27746e+06) (-2.25088 -2.25088 -1.24914e+06) (-23.1131 -23.1131 -2.49214e+06) (-2.63418 -2.63418 -4.14649e+06) (19.5922 19.5922 -2.00687e+06) (16.832 16.832 -1.33593e+06) (2.5424 2.5424 -2.15675e+06) (-16.2757 -16.2757 -3.27853e+06)
2000          (-6.16347 -6.16347 -1.30246e+06) (-5.91069 -5.91069 -1.29707e+06) (16.7499 16.7499 -1.28481e+06) (-4.27876 -4.27876 -1.26428e+06) (-0.729379 -0.729378 -1.237e+06) (-31.4481 -31.4481 -2.46996e+06) (-3.07431 -3.07431 -4.16018e+06) (18.5532 18.5532 -2.06772e+06) (16.3744 16.3744 -1.37771e+06) (2.48135 2.48135 -2.15708e+06) (-15.5397 -15.5397 -3.23906e+06)
2050          (-5.53718 -5.53718 -1.28836e+06) (-4.40989 -4.40989 -1.28315e+06) (14.8905 14.8905 -1.27134e+06) (-5.34396 -5.34396 -1.25154e+06) (0.312795 0.312795 -1.22526e+06) (-35.4837 -35.4837 -2.44846e+06) (-3.43075 -3.43075 -4.17216e+06) (17.454 17.454 -2.12653e+06) (15.8388 15.8388 -1.41911e+06) (2.42522 2.42522 -2.15762e+06) (-14.7923 -14.7923 -3.20118e+06)
2100          (-5.08261 -5.08261 -1.27475e+06) (-3.20492 -3.20492 -1.26972e+06) (12.6042 12.6042 -1.25832e+06) (-5.47397 -5.47396 -1.23923e+06) (0.961358 0.961358 -1.21389e+06) (-37.3552 -37.3552 -2.42758e+06) (-3.74274 -3.74274 -4.18258e+06) (16.485 16.485 -2.18333e+06) (15.3837 15.3837 -1.4601e+06) (2.39334 2.39334 -2.15839e+06) (-14.1036 -14.1036 -3.16479e+06)
2150          (-4.76785 -4.76785 -1.2616e+06) (-2.32064 -2.32064 -1.25675e+06) (10.2994 10.2994 -1.24575e+06) (-5.01824 -5.01824 -1.22733e+06) (1.2936 1.2936 -1.20288e+06) (-38.0603 -38.0603 -2.40732e+06) (-4.01719 -4.01719 -4.19159e+06) (15.6199 15.6199 -2.23814e+06) (14.9893 14.9893 -1.50065e+06) (2.38017 2.38017 -2.15941e+06) (-13.4699 -13.4699 -3.12984e+06)
2200          (-4.52759 -4.52759 -1.24891e+06) (-1.70496 -1.70496 -1.24422e+06) (8.18531 8.18531 -1.2336e+06) (-4.25875 -4.25875 -1.21581e+06) (1.38175 1.38175 -1.19221e+06) (-38.1147 -38.1147 -2.38764e+06) (-4.25662 -4.25662 -4.19933e+06) (14.8279 14.8279 -2.29102e+06) (14.6313 14.6313 -1.54072e+06) (2.38006 2.38006 -2.16071e+06) (-12.8813 -12.8813 -3.09625e+06)
2250          (-4.3061 -4.3061 -1.23663e+06) (-1.28871 -1.28871 -1.23211e+06) (6.36411 6.36411 -1.22184e+06) (-3.40506 -3.40506 -1.20466e+06) (1.30895 1.30895 -1.18187e+06) (-37.8019 -37.8019 -2.36853e+06) (-4.46353 -4.46353 -4.2059e+06) (14.0899 14.0899 -2.34199e+06) (14.2943 14.2943 -1.58029e+06) (2.38915 2.38915 -2.16228e+06) (-12.3294 -12.3294 -3.06397e+06)
2300          (-4.07224 -4.07224 -1.22477e+06) (-1.00984 -1.00983 -1.22039e+06) (4.87746 4.87746 -1.21047e+06) (-2.60005 -2.60005 -1.19386e+06) (1.15746 1.15746 -1.17184e+06) (-37.2773 -37.2773 -2.34996e+06) (-4.64079 -4.64079 -4.21141e+06) (13.395 13.395 -2.39111e+06) (13.97 13.97 -1.61934e+06) (2.40488 2.40488 -2.16413e+06) (-11.8087 -11.8087 -3.03294e+06)
2350          (-3.81991 -3.81991 -1.21329e+06) (-0.820826 -0.820826 -1.20905e+06) (3.72184 3.72184 -1.19946e+06) (-1.92279 -1.92279 -1.1834e+06) (0.9906 0.9906 -1.16211e+06) (-36.6244 -36.6244 -2.33191e+06) (-4.79145 -4.79145 -4.21596e+06) (12.7363 12.7363 -2.43842e+06) (13.6534 13.6534 -1.65785e+06) (2.42549 2.42549 -2.16628e+06) (-11.3151 -11.3151 -3.0031e+06)
2400          (-3.55937 -3.55937 -1.20217e+06) (-0.688879 -0.688879 -1.19808e+06) (2.85721 2.85721 -1.18879e+06) (-1.39603 -1.39603 -1.17326e+06) (0.843519 0.843519 -1.15267e+06) (-35.8886 -35.8886 -2.31436e+06) (-4.91843 -4.91843 -4.21963e+06) (12.1095 12.1095 -2.48397e+06) (13.342 13.342 -1.6958e+06) (2.44965 2.44965 -2.16872e+06) (-10.8456 -10.8456 -2.97442e+06)
2450          (-3.30535 -3.30535 -1.19142e+06) (-0.59305 -0.59305 -1.18745e+06) (2.22284 2.22284 -1.17846e+06) (-1.00454 -1.00454 -1.16343e+06) (0.72699 0.72699 -1.14351e+06) (-35.0983 -35.0983 -2.2973e+06) (-5.02438 -5.02438 -4.22249e+06) (11.5114 11.5114 -2.52781e+06) (13.034 13.034 -1.73316e+06) (2.47632 2.47632 -2.17145e+06) (-10.3978 -10.3978 -2.94684e+06)
2500          (-3.06879 -3.06879 -1.181e+06) (-0.520604 -0.520604 -1.17715e+06) (1.75673 1.75673 -1.16845e+06) (-0.717752 -0.717752 -1.1539e+06) (0.638247 0.638247 -1.13462e+06) (-34.2743 -34.2743 -2.28071e+06) (-5.11157 -5.11157 -4.22463e+06) (10.9397 10.9397 -2.57e+06) (12.7285 12.7285 -1.76993e+06) (2.50465 2.50465 -2.17448e+06) (-9.96976 -9.96976 -2.92033e+06)
2550          (-2.85459 -2.85459 -1.1709e+06) (-0.463885 -0.463885 -1.16717e+06) (1.40833 1.40833 -1.15875e+06) (-0.505875 -0.505875 -1.14465e+06) (0.570472 0.570472 -1.12598e+06) (-33.4331 -33.4331 -2.26458e+06) (-5.182 -5.182 -4.22609e+06) (10.3926 10.3926 -2.61059e+06) (12.4251 12.4251 -1.8061e+06) (2.53389 2.53389 -2.17779e+06) (-9.55961 -9.55961 -2.89485e+06)
2600          (-2.66308 -2.66308 -1.16111e+06) (-0.41818 -0.41818 -1.1575e+06) (1.14162 1.14162 -1.14934e+06) (-0.346245 -0.346245 -1.13568e+06) (0.517489 0.517489 -1.11759e+06) (-32.5871 -32.5871 -2.24888e+06) (-5.23746 -5.23746 -4.22695e+06) (9.86894 9.86894 -2.64962e+06) (12.1236 12.1236 -1.84165e+06) (2.56344 2.56344 -2.18139e+06) (-9.16591 -9.16591 -2.87036e+06)
2650          (-2.49234 -2.49234 -1.15162e+06) (-0.380471 -0.380471 -1.14812e+06) (0.932516 0.932516 -1.14021e+06) (-0.223361 -0.223361 -1.12697e+06) (0.474893 0.474893 -1.10944e+06) (-31.7452 -31.7452 -2.2336e+06) (-5.27951 -5.27951 -4.22724e+06) (9.36761 9.36761 -2.68716e+06) (11.824 11.824 -1.87657e+06) (2.5928 2.5928 -2.18526e+06) (-8.78741 -8.78741 -2.84683e+06)
2700          (-2.33974 -2.33974 -1.14241e+06) (-0.348746 -0.348746 -1.13902e+06) (0.765158 0.765158 -1.13134e+06) (-0.126953 -0.126953 -1.11851e+06) (0.439765 0.439765 -1.10151e+06) (-30.9136 -30.9136 -2.21874e+06) (-5.30961 -5.30961 -4.22703e+06) (8.88773 8.88773 -2.72324e+06) (11.5267 11.5267 -1.91086e+06) (2.62154 2.62154 -2.18941e+06) (-8.42299 -8.42299 -2.82422e+06)
2750          (-2.20274 -2.20274 -1.13348e+06) (-0.321618 -0.321618 -1.13019e+06) (0.628902 0.628902 -1.12274e+06) (-0.0501424 -0.0501423 -1.11029e+06) (0.410176 0.410176 -1.09381e+06) (-30.0966 -30.0966 -2.20427e+06) (-5.32904 -5.32904 -4.22635e+06) (8.42848 8.42848 -2.75793e+06) (11.2319 11.2319 -1.94452e+06) (2.64932 2.64932 -2.19382e+06) (-8.07172 -8.07172 -2.80251e+06)
2800          (-2.07908 -2.07908 -1.12481e+06) (-0.298103 -0.298103 -1.12161e+06) (0.516403 0.516403 -1.11439e+06) (0.0118008 0.0118008 -1.10231e+06) (0.384816 0.384816 -1.08632e+06) (-29.2969 -29.2969 -2.19019e+06) (-5.33897 -5.33897 -4.22523e+06) (7.9891 7.9891 -2.79127e+06) (10.94 10.94 -1.97753e+06) (2.67586 2.67586 -2.19849e+06) (-7.73276 -7.73276 -2.78167e+06)
2850          (2.27091 2.27091 -1.11647e+06) (-0.454294 -0.454294 -1.11332e+06) (-2.31571 -2.31571 -1.10635e+06) (-1.1577 -1.1577 -1.09465e+06) (-0.740199 -0.740199 -1.07897e+06) (-57.0301 -57.0301 -2.17632e+06) (-8.31042 -8.31042 -4.22371e+06) (11.031 11.031 -2.82331e+06) (15.4372 15.4372 -2.0099e+06) (3.93792 3.93792 -2.20341e+06) (-9.99809 -9.99809 -2.76168e+06)
2900          (-2.75406 -2.75406 -1.10835e+06) (-1.30597 -1.30596 -1.10519e+06) (-6.06401 -6.06401 -1.09878e+06) (-2.6853 -2.68529 -1.08721e+06) (-3.02479 -3.02478 -1.07176e+06) (-190.67 -190.67 -2.16285e+06) (-51.4489 -51.4489 -4.22178e+06) (41.1306 41.1306 -2.85409e+06) (53.1259 53.1259 -2.04162e+06) (14.8551 14.8551 -2.20856e+06) (-35.9304 -35.9304 -2.74252e+06)
2950          (-4.66075 -4.66075 -1.10055e+06) (-2.22066 -2.22066 -1.0975e+06) (-4.73745 -4.73745 -1.09102e+06) (-3.00872 -3.00872 -1.0799e+06) (-4.63422 -4.63422 -1.06496e+06) (-199.138 -199.138 -2.14964e+06) (-23.9871 -23.9871 -4.21945e+06) (30.5469 30.5469 -2.88369e+06) (45.5404 45.5404 -2.07272e+06) (12.1157 12.1157 -2.21395e+06) (-23.0714 -23.0714 -2.72412e+06)
3000          (0.716515 0.716515 -1.09331e+06) (-1.98442 -1.98442 -1.09038e+06) (4.04734 4.04734 -1.08359e+06) (-11.2559 -11.2559 -1.07291e+06) (8.55945 8.55945 -1.05813e+06) (-55.605 -55.605 -2.13646e+06) (-11.3307 -11.3307 -4.21683e+06) (11.6264 11.6264 -2.91212e+06) (18.482 18.482 -2.10317e+06) (5.36517 5.36517 -2.21955e+06) (-11.6914 -11.6914 -2.70651e+06)
3050          (-0.0581818 -0.0581817 -1.08619e+06) (2.43156 2.43156 -1.08329e+06) (-6.23785 -6.23785 -1.07658e+06) (6.11194 6.11194 -1.06602e+06) (-7.57425 -7.57425 -1.05149e+06) (-47.7168 -47.7168 -2.12362e+06) (-11.1982 -11.1982 -4.2139e+06) (11.179 11.179 -2.93942e+06) (18.2029 18.2029 -2.13298e+06) (5.44848 5.44848 -2.22537e+06) (-11.4342 -11.4342 -2.68964e+06)
3100          (-0.517125 -0.517125 -1.07916e+06) (2.07388 2.07388 -1.07631e+06) (-2.91633 -2.91633 -1.0697e+06) (2.15441 2.15441 -1.05933e+06) (-3.57374 -3.57374 -1.0451e+06) (-42.9697 -42.9697 -2.11137e+06) (-9.21352 -9.21352 -4.21065e+06) (9.24016 9.24016 -2.96563e+06) (15.2185 15.2185 -2.16216e+06) (4.66074 4.66074 -2.23138e+06) (-10.7759 -10.7759 -2.67349e+06)
3150          (-1.26949 -1.26949 -1.07234e+06) (-2.27931 -2.27931 -1.06953e+06) (3.85837 3.85837 -1.06303e+06) (-4.25498 -4.25498 -1.05284e+06) (-8.10322 -8.10322 -1.03879e+06) (-18.2777 -18.2777 -2.09981e+06) (-4.53205 -4.53205 -4.2071e+06) (-0.464728 -0.464728 -2.99081e+06) (-0.0876706 -0.0876706 -2.19071e+06) (0.250115 0.250115 -2.23758e+06) (1.57842 1.57842 -2.65808e+06)
3200          (-0.728024 -0.728024 -1.06559e+06) (-1.01457 -1.01457 -1.06283e+06) (-0.134184 -0.134184 -1.05647e+06) (-1.20003 -1.20003 -1.04649e+06) (-2.42396 -2.42396 -1.03285e+06) (-76.1178 -76.1178 -2.08796e+06) (-14.7881 -14.7881 -4.20332e+06) (13.6569 13.6569 -3.01498e+06) (23.5672 23.5672 -2.21863e+06) (7.65637 7.65637 -2.24397e+06) (-13.7499 -13.7499 -2.64332e+06)
3250          (5.58566 5.58566 -1.05905e+06) (1.71656 1.71656 -1.05635e+06) (2.04819 2.04819 -1.05012e+06) (3.84982 3.84982 -1.04035e+06) (8.12546 8.12546 -1.02696e+06) (215.237 215.237 -2.07734e+06) (45.9112 45.9112 -4.19934e+06) (-35.6523 -35.6523 -3.0382e+06) (-65.2836 -65.2836 -2.24595e+06) (-22.4354 -22.4354 -2.25053e+06) (31.1299 31.1299 -2.62926e+06)
3300          (4.1205 4.1205 -1.05263e+06) (0.308092 0.308092 -1.04999e+06) (0.287731 0.287731 -1.04389e+06) (0.0889634 0.0889634 -1.03435e+06) (-1.48855 -1.48855 -1.02126e+06) (85.9143 85.9143 -2.06646e+06) (23.8008 23.8008 -4.1952e+06) (-13.269 -13.269 -3.06046e+06) (-29.5372 -29.5372 -2.27264e+06) (-11.1101 -11.1101 -2.25725e+06) (17.5882 17.5882 -2.61584e+06)
3350          (2.85861 2.85861 -1.04633e+06) (0.264673 0.264673 -1.04375e+06) (-0.0162072 -0.0162073 -1.03779e+06) (3.62002 3.62002 -1.02848e+06) (7.65589 7.65589 -1.01573e+06) (-13.7476 -13.7476 -2.05578e+06) (-2.261 -2.261 -4.19094e+06) (-2.92936 -2.92936 -3.08182e+06) (-1.78008 -1.78008 -2.29871e+06) (-0.146381 -0.146381 -2.26411e+06) (1.20473 1.20473 -2.60305e+06)
3400          (-0.699456 -0.699456 -1.04017e+06) (-0.275498 -0.275498 -1.03765e+06) (2.45316 2.45316 -1.03184e+06) (10.8863 10.8863 -1.02276e+06) (11.5475 11.5475 -1.01031e+06) (29.6333 29.6333 -2.04548e+06) (7.72331 7.72331 -4.18658e+06) (-8.73565 -8.73565 -3.10232e+06) (-13.7507 -13.7507 -2.32419e+06) (-4.76891 -4.76891 -2.27112e+06) (7.79727 7.79727 -2.59088e+06)
3450          (-0.558103 -0.558103 -1.03417e+06) (1.50863 1.50863 -1.03171e+06) (-2.70938 -2.70938 -1.02604e+06) (-12.6762 -12.6762 -1.01719e+06) (-10.7548 -10.7548 -1.00505e+06) (41.1877 41.1877 -2.03543e+06) (11.4102 11.4102 -4.18213e+06) (-6.03807 -6.03807 -3.12199e+06) (-14.987 -14.987 -2.34909e+06) (-5.96352 -5.96352 -2.27826e+06) (7.9013 7.9013 -2.5793e+06)
3500          (-0.143461 -0.143461 -1.02831e+06) (-2.98578 -2.98578 -1.02591e+06) (2.73037 2.73037 -1.02038e+06) (13.2511 13.2511 -1.01174e+06) (11.5095 11.5095 -999910) (25.8188 25.8188 -2.02564e+06) (9.72514 9.72514 -4.17762e+06) (-7.02403 -7.02403 -3.14086e+06) (-13.6514 -13.6514 -2.3734e+06) (-5.30089 -5.30089 -2.28553e+06) (7.30452 7.30452 -2.56831e+06)
3550          (-1.07192 -1.07192 -1.02259e+06) (4.05461 4.05461 -1.02025e+06) (-2.65163 -2.65163 -1.01486e+06) (-13.0279 -13.0279 -1.00644e+06) (-9.76569 -9.76569 -994906) (38.5739 38.5739 -2.01607e+06) (9.88628 9.88628 -4.17302e+06) (-5.647 -5.647 -3.15897e+06) (-13.3503 -13.3503 -2.39713e+06) (-5.5297 -5.5297 -2.2929e+06) (6.85987 6.85987 -2.55789e+06)
3600          (0.35578 0.35578 -1.01702e+06) (-5.13515 -5.13515 -1.01474e+06) (2.51141 2.51141 -1.00948e+06) (12.8436 12.8436 -1.00126e+06) (10.3027 10.3027 -990011) (24.3038 24.3038 -2.00674e+06) (9.74473 9.74473 -4.16837e+06) (-5.78331 -5.78331 -3.17635e+06) (-12.8821 -12.8821 -2.4203e+06) (-5.38696 -5.38696 -2.30039e+06) (6.51317 6.51317 -2.54803e+06)
3650          (-1.47533 -1.47533 -1.01158e+06) (5.77433 5.77433 -1.00935e+06) (-2.37218 -2.37218 -1.00422e+06) (-12.3701 -12.3701 -996213) (-8.6999 -8.6999 -985243) (35.6377 35.6377 -1.99762e+06) (9.32529 9.32529 -4.16365e+06) (-5.00484 -5.00484 -3.19302e+06) (-12.2271 -12.2271 -2.44291e+06) (-5.33458 -5.33458 -2.30797e+06) (6.0182 6.0182 -2.5387e+06)
3700          (0.701184 0.701184 -1.00627e+06) (-6.47102 -6.47102 -1.0041e+06) (2.18908 2.18908 -999092) (12.0634 12.0634 -991276) (9.27372 9.27372 -980579) (22.9687 22.9687 -1.98872e+06) (9.39919 9.39919 -4.15887e+06) (-4.87716 -4.87716 -3.20902e+06) (-11.9435 -11.9435 -2.46498e+06) (-5.32003 -5.32003 -2.31564e+06) (5.70674 5.70674 -2.5299e+06)
3750          (-1.72343 -1.72343 -1.00109e+06) (6.77376 6.77376 -998967) (-2.04748 -2.04748 -994088) (-11.5774 -11.5774 -986469) (-7.84677 -7.84677 -976033) (32.922 32.922 -1.98001e+06) (8.92062 8.92062 -4.15404e+06) (-4.3176 -4.3176 -3.22437e+06) (-11.267 -11.267 -2.48651e+06) (-5.19641 -5.19641 -2.32339e+06) (5.25236 5.25236 -2.52161e+06)
3800          (0.90811 0.90811 -996032) (-7.19844 -7.19844 -993968) (1.85694 1.85694 -989202) (11.2565 11.2565 -981764) (8.45554 8.45554 -971585) (21.6439 21.6439 -1.97151e+06) (9.0067 9.0067 -4.14917e+06) (-4.1322 -4.1322 -3.2391e+06) (-11.0192 -11.0192 -2.50751e+06) (-5.20681 -5.20681 -2.33121e+06) (4.95272 4.95272 -2.51382e+06)
3850          (-1.85451 -1.85451 -991102) (7.27458 7.27458 -989081) (-1.73638 -1.73638 -984435) (-10.8101 -10.8101 -977181) (-7.17953 -7.17953 -967247) (30.4772 30.4772 -1.96319e+06) (8.54795 8.54795 -4.14426e+06) (-3.67351 -3.67351 -3.25324e+06) (-10.3849 -10.3849 -2.528e+06) (-5.06573 -5.06573 -2.3391e+06) (4.54325 4.54325 -2.50651e+06)
3900          (1.01911 1.01911 -986284) (-7.52426 -7.52426 -984317) (1.55403 1.55403 -979779) (10.5037 10.5037 -972695) (7.80385 7.80385 -963002) (20.3256 20.3256 -1.95507e+06) (8.61878 8.61878 -4.13931e+06) (-3.48655 -3.48655 -3.2668e+06) (-10.148 -10.148 -2.54798e+06) (-5.07622 -5.07622 -2.34705e+06) (4.25683 4.25683 -2.49967e+06)
3950          (-1.90838 -1.90838 -981586) (7.45678 7.45678 -979659) (-1.46307 -1.46307 -975233) (-10.1086 -10.1086 -968323) (-6.65024 -6.65024 -958861) (28.2788 28.2788 -1.94712e+06) (8.188 8.188 -4.13433e+06) (-3.09187 -3.09187 -3.27981e+06) (-9.56293 -9.56293 -2.56747e+06) (-4.93136 -4.93136 -2.35506e+06) (3.88719 3.88719 -2.49329e+06)
4000          (1.06844 1.06844 -976993) (-7.59865 -7.59865 -975119) (1.29435 1.29435 -970793) (9.8229 9.8229 -964042) (7.27185 7.27185 -954807) (19.0342 19.0342 -1.93935e+06) (8.24393 8.24393 -4.12932e+06) (-2.91761 -2.91761 -3.29229e+06) (-9.33549 -9.33549 -2.58647e+06) (-4.93687 -4.93687 -2.36311e+06) (3.6161 3.6161 -2.48736e+06)
4050          (-3.85829 -3.85829 -972797) (-0.604023 -0.604023 -970951) (-0.265636 -0.265636 -966693) (1.04067 1.04067 -959975) (0.66412 0.66412 -950943) (11.8987 11.8987 -1.92988e+06) (3.85752 3.85752 -4.12426e+06) (-0.888794 -0.888794 -3.30429e+06) (-3.74263 -3.74263 -2.60502e+06) (-2.08275 -2.08275 -2.3712e+06) (1.05992 1.05992 -2.48185e+06)
4100          (2.94448 2.94448 -968434) (0.289464 0.289464 -966587) (-0.763618 -0.763618 -962465) (-1.36235 -1.36235 -955966) (-0.834347 -0.834347 -946960) (3.85988 3.85988 -1.92257e+06) (0.404208 0.404208 -4.11913e+06) (1.44043 1.44043 -3.31577e+06) (1.45812 1.45812 -2.62308e+06) (0.438643 0.438643 -2.37933e+06) (-0.15965 -0.15965 -2.47678e+06)