# Probe 0 (0.0015 0.0015 0)
# Probe 1 (0.0015 0.0015 0.01)
# Probe 2 (0.0015 0.0015 0.02)
# Probe 3 (0.0015 0.0015 0.03)
# Probe 4 (0.0015 0.0015 0.04)
# Probe 5 (0.0015 0.0015 0.05)
# Probe 6 (0.0015 0.0015 0.06)
# Probe 7 (0.0015 0.0015 0.07)
# Probe 8 (0.0015 0.0015 0.08)
# Probe 9 (0.0015 0.0015 0.09)
# Probe 10 (0.0015 0.0015 0.1)
# Time        0             1             2             3             4             5             6             7             8             9             10           
50            (0.0275288 0.0275288 15229.8) (0.0107281 0.0107281 11521.9) (-0.00408697 -0.00408697 5740.81) (-0.00530784 -0.00530784 2138.07) (-0.00484107 -0.00484107 626.409) (5.62086e-05 5.62087e-05 69.8571) (4.9625e-05 4.9625e-05 -0.785183) (1.86948e-05 1.86948e-05 -0.00109877) (4.28526e-05 4.28526e-05 0.015033) (-0.00108883 -0.00108883 19.2413) (-0.0283931 -0.0283931 5922.62)
100           (0.0420587 0.0420587 10859.4) (0.0119727 0.0119727 9681.74) (0.00524205 0.00524205 7086.85) (-0.00343577 -0.00343577 4107.41) (0.0160847 0.0160847 1927.22) (0.0654747 0.0654747 626.308) (4.40661e-05 4.40661e-05 -0.692242) (2.09022e-06 2.09023e-06 -0.00539772) (-4.06217e-05 -4.06217e-05 0.160749) (-0.0061216 -0.0061216 73.793) (0.0446358 0.0446358 4867.94)
150           (0.0260475 0.0260475 8878.15) (0.0158448 0.0158448 8265.43) (0.0122618 0.0122618 6851.44) (0.00611826 0.00611826 4905.28) (-0.0055106 -0.0055106 2988.56) (0.0965671 0.0965671 1295.09) (-0.00117241 -0.00117241 5.78054) (-4.12879e-08 -4.12912e-08 -0.0106394) (-0.000102989 -0.000102989 0.779344) (-0.0080601 -0.0080601 153.875) (0.00389564 0.00389564 4207.46)
200           (0.0223274 0.0223274 7693.21) (0.0137096 0.0137096 7306.92) (0.0124659 0.0124659 6405.97) (0.0105548 0.0105548 5089.59) (-0.00054733 -0.00054733 3611.96) (0.27229 0.27229 1858.55) (-0.0012936 -0.0012936 25.3493) (-8.66301e-06 -8.66301e-06 0.0302755) (-0.000178895 -0.000178895 2.38039) (-0.00894755 -0.00894755 243.681) (0.0225148 0.0225148 3751.19)
250           (0.0171396 0.0171396 6890.11) (0.0214225 0.0214225 6621.48) (0.00163724 0.00163724 5993.26) (0.0193413 0.0193413 5051.47) (0.000582937 0.000582937 3924.13) (0.347077 0.347077 2249.79) (-0.00360373 -0.00360373 62.5227) (-3.36755e-05 -3.36754e-05 0.257416) (-0.00042874 -0.00042874 5.47977) (-0.0119846 -0.0119846 331.819) (0.0217955 0.0217955 3413.98)
300           (-0.00197335 -0.00197335 6306.08) (0.0224401 0.0224401 6107.63) (-0.00890273 -0.00890273 5643.1) (0.0215993 0.0215993 4936.52) (-0.00557938 -0.00557938 4058.12) (-0.0192633 -0.0192633 2495.58) (0.00720443 0.00720443 118.432) (0.000121211 0.000121211 0.932352) (0.000475941 0.000475941 10.4319) (0.00698966 0.00698966 412.415) (-0.0753812 -0.0753812 3152.62)
350           (-0.00202877 -0.00202876 5860.76) (-0.00549507 -0.00549507 5707.57) (0.00255072 0.00255072 5348.74) (-0.00641461 -0.00641461 4797.49) (-0.00297818 -0.00297818 4094.36) (0.0769032 0.0769032 2640.62) (0.00100684 0.00100684 191.236) (0.00748514 0.00748514 2.4252) (-1.2244e-05 -1.2244e-05 17.3743) (-0.00339304 -0.00339304 483.362) (0.0173845 0.0173845 2942.65)
400           (0.011881 0.011881 5508.41) (0.00308105 0.00308105 5385.98) (-0.0113021 -0.0113021 5098.98) (-0.00341123 -0.00341123 4654.72) (0.0183368 0.0183368 4077.62) (0.0895794 0.0895794 2719.31) (-0.00722911 -0.00722911 277.132) (-0.00529442 -0.00529442 5.16767) (-0.000443071 -0.000443071 26.2623) (0.00100554 0.00100554 544.489) (0.0183982 0.0183982 2769.4)
450           (0.00940238 0.00940238 5221.12) (0.000562749 0.000562749 5120.45) (-0.0177574 -0.0177574 4884.26) (-0.00607969 -0.00607969 4516.57) (0.00739782 0.00739782 4031.99) (-0.295057 -0.295057 2756.35) (0.00992197 0.00992197 371.688) (-0.010513 -0.010513 9.61678) (0.000824046 0.000824046 36.907) (0.0174089 0.0174089 596.534) (-0.0173354 -0.0173354 2623.36)
500           (-0.00447966 -0.00447966 4981.07) (0.00291423 0.00291423 4896.28) (0.00463296 0.00463296 4697.27) (0.00486396 0.00486396 4386.1) (-0.00143576 -0.00143576 3971.23) (0.118396 0.118396 2765.79) (-0.00586058 -0.00586058 470.636) (-0.000567391 -0.000567391 16.1923) (-0.00107583 -0.00107583 49.0561) (-0.00372803 -0.00372803 640.537) (0.00218387 0.00218387 2498.14)
550           (0.00468249 0.00468249 4776.32) (0.00487881 0.00487881 4703.5) (0.0130944 0.0130944 4532.5) (0.0196178 0.0196178 4264.28) (0.0193611 0.0193611 3902.84) (-0.016594 -0.016594 2759.02) (0.00379253 0.00379253 570.253) (0.00075291 0.00075291 25.2095) (0.000747992 0.000747992 62.4234) (0.00316018 0.00316018 677.606) (-0.0129206 -0.0129206 2389.23)
600           (0.00914463 0.00914463 4598.51) (0.0105941 0.0105941 4534.94) (0.0128662 0.0128662 4385.63) (0.0040657 0.0040657 4150.83) (0.0165841 0.0165841 3832.64) (0.222358 0.222358 2741.15) (-0.0189326 -0.0189326 667.764) (0.00155249 0.00155249 36.8821) (-0.00476013 -0.00476013 76.7369) (-0.00414766 -0.00414766 708.764) (0.00425595 0.00425595 2293.39)
650           (-0.00944574 -0.00944574 4441.88) (-0.0147879 -0.0147879 4385.62) (-0.0197495 -0.0197495 4253.53) (-0.00495697 -0.00495697 4045.45) (-0.0319336 -0.0319336 3762.09) (-0.018539 -0.018539 2716.7) (0.0207005 0.0207005 761.2) (-0.0109977 -0.0109977 51.3081) (0.00665769 0.00665769 91.7677) (-0.00144798 -0.00144798 734.912) (-0.00935647 -0.00935647 2208.21)
700           (-0.0121339 -0.0121339 4302.2) (-0.0188667 -0.0188667 4251.88) (-0.0146611 -0.0146611 4133.79) (-0.00142881 -0.00142881 3947.5) (-0.0197955 -0.0197955 3692.95) (-0.012586 -0.012586 2688.01) (0.0174063 0.0174063 849.283) (-0.0145126 -0.0145126 68.489) (0.0107888 0.0107888 107.323) (-0.00326342 -0.00326342 756.829) (-0.00732723 -0.00732723 2131.86)
750           (-0.0139953 -0.0139953 4176.45) (-0.0202531 -0.0202531 4131.04) (-0.0113812 -0.0113812 4024.5) (-0.00156244 -0.00156244 3856.28) (-0.0132864 -0.0132864 3625.79) (-0.0124895 -0.0124895 2656.87) (0.0151269 0.0151269 931.287) (-0.0143164 -0.0143164 88.3244) (0.0124299 0.0124299 123.253) (-0.00489548 -0.00489548 775.169) (-0.00589024 -0.00589024 2062.92)
800           (0.00732158 0.00732158 4062.56) (0.013904 0.013904 4021.23) (0.0264685 0.0264685 3924.27) (0.0311943 0.0311943 3770.91) (0.0158241 0.0158241 3559.85) (0.0952708 0.0952708 2624.86) (-0.0062106 -0.0062106 1006.91) (-0.00223917 -0.00223917 110.648) (-0.00194289 -0.00194289 139.45) (-0.00217002 -0.00217002 790.487) (0.00316833 0.00316833 2000.24)
850           (-0.000466016 -0.000466016 3958.34) (0.0112369 0.0112369 3920.47) (0.0262525 0.0262525 3831.64) (0.0259927 0.0259927 3691.12) (0.00969556 0.00969556 3497.49) (0.0845734 0.0845734 2591.67) (-0.00527062 -0.00527062 1076.14) (-0.00235824 -0.00235824 135.222) (-0.00187674 -0.00187674 155.837) (-0.00182708 -0.00182708 803.246) (0.00267025 0.00267025 1942.95)
900           (-0.0148224 -0.0148224 3862.48) (-0.00605376 -0.00605376 3827.58) (-0.00535125 -0.00535125 3745.78) (-0.00476677 -0.00476677 3616.32) (0.00907759 0.00907759 3438.29) (-0.662761 -0.662761 2559.08) (0.0346757 0.0346757 1139.22) (0.0178917 0.0178917 161.793) (0.0132177 0.0132177 172.365) (0.0112702 0.0112702 813.838) (-0.0350166 -0.0350166 1890.32)
950           (0.000651647 0.000651647 3773.85) (0.000263714 0.000263714 3741.54) (0.00418369 0.00418369 3665.81) (0.00814079 0.00814079 3545.93) (0.00561136 0.00561136 3380.42) (0.409783 0.409783 2525.29) (-0.0253995 -0.0253995 1196.4) (-0.0156246 -0.0156246 190.089) (-0.0110622 -0.0110622 189) (-0.00841433 -0.00841433 822.584) (0.0293961 0.0293961 1841.75)
1000          (-0.00479529 -0.00479528 3691.58) (0.0356354 0.0356354 3661.53) (0.0196357 0.0196357 3591.12) (-0.031117 -0.031117 3479.66) (0.00543227 0.00543227 3325.86) (0.0552495 0.0552495 2493.32) (-0.00199343 -0.00199343 1248.11) (-0.000496596 -0.000496596 219.819) (-0.0002803 -0.0002803 205.724) (-0.000285441 -0.000285441 829.779) (-0.00281424 -0.00281424 1796.74)
1050          (-0.00153093 -0.00153093 3614.89) (-0.0304714 -0.0304714 3586.82) (-0.0137236 -0.0137236 3521.11) (0.0246647 0.0246647 3417.13) (-0.00315207 -0.00315207 3273.46) (-0.106029 -0.106029 2461.21) (0.00560193 0.00560193 1294.73) (0.00451114 0.00451114 250.682) (0.00299016 0.00299016 222.516) (0.0016558 0.0016558 835.653) (-0.00497148 -0.00497148 1754.88)
1100          (-0.0136106 -0.0136106 3543.17) (0.0338672 0.0338672 3516.87) (0.00606285 0.00606285 3455.29) (-0.0288459 -0.0288459 3357.86) (0.00748975 0.00748974 3223.61) (-0.288219 -0.288219 2430.46) (0.00857261 0.00857261 1336.73) (0.00966214 0.00966214 282.414) (0.00620877 0.00620877 239.372) (0.00308696 0.00308696 840.415) (-0.0113981 -0.0113981 1715.81)
1150          (-0.0120214 -0.0120214 3475.77) (0.0308575 0.0308575 3451.04) (0.00155646 0.00155646 3393.18) (-0.0291979 -0.0291979 3301.65) (0.0142263 0.0142263 3175.53) (-0.276658 -0.276658 2400.09) (0.00714842 0.00714842 1374.52) (0.00976203 0.00976203 314.778) (0.00619565 0.00619565 256.294) (0.00272342 0.00272342 844.232) (-0.0108615 -0.0108615 1679.25)
1200          (0.00831814 0.00831814 3412.27) (0.00324194 0.00324194 3388.96) (0.00215886 0.00215886 3334.47) (0.000331953 0.000331954 3248.3) (0.0169694 0.0169694 3129.65) (0.208096 0.208096 2370.65) (-0.00930036 -0.00930036 1408.47) (-0.00844448 -0.00844448 347.537) (-0.00522747 -0.00522747 273.276) (-0.00158445 -0.00158445 847.254) (0.00503721 0.00503721 1644.94)
1250          (0.0086708 0.0086708 3352.33) (0.00262765 0.00262765 3330.31) (0.00108718 0.00108718 3278.85) (0.00320384 0.00320384 3197.51) (0.00703769 0.00703769 3085.49) (0.208434 0.208434 2342.02) (-0.00071874 -0.00071874 1438.97) (-0.0105965 -0.0105965 380.497) (-0.00657487 -0.00657487 290.319) (-0.0029568 -0.0029568 849.61) (0.00744154 0.00744154 1612.66)
1300          (0.00849236 0.00849236 3295.6) (0.00235382 0.00235382 3274.75) (0.00133861 0.00133861 3226.06) (0.00349018 0.00349018 3149.1) (0.00228379 0.00228379 3043.11) (0.198451 0.198451 2314.21) (0.00330959 0.00330959 1466.33) (-0.00784102 -0.00784102 413.472) (-0.00653909 -0.00653909 307.418) (-0.00296188 -0.00296188 851.411) (0.00738867 0.00738867 1582.21)
1350          (0.00840568 0.00840568 3241.8) (0.00214628 0.00214628 3222.02) (0.00181386 0.00181386 3175.86) (0.00259346 0.00259346 3102.9) (0.00181986 0.00181986 3002.43) (0.192283 0.192283 2287.23) (0.00523185 0.00523185 1490.86) (-0.00533103 -0.00533103 446.303) (-0.00594302 -0.00594302 324.566) (-0.00267268 -0.00267268 852.754) (0.00717512 0.00717512 1553.44)
1400          (0.00819147 0.00819147 3190.68) (0.0020469 0.0020469 3171.89) (0.00203087 0.00203087 3128.04) (0.00178772 0.00178772 3058.75) (0.00282707 0.00282707 2963.33) (0.186515 0.186515 2261.08) (0.00637207 0.00637207 1512.83) (-0.00353701 -0.00353701 478.85) (-0.00497847 -0.00497847 341.755) (-0.00217321 -0.00217321 853.721) (0.00687907 0.00687907 1526.2)
1450          (0.00789366 0.00789366 3142.03) (0.00199408 0.00199408 3124.15) (0.00200967 0.00200967 3082.42) (0.00131168 0.00131168 3016.51) (0.00416777 0.00416777 2925.74) (0.180785 0.180785 2235.73) (0.00712186 0.00712186 1532.52) (-0.00231739 -0.00231739 510.997) (-0.00396234 -0.00396234 358.975) (-0.00155152 -0.00155152 854.387) (0.00656776 0.00656776 1500.36)
1500          (0.0075444 0.0075444 3095.66) (0.00194174 0.00194174 3078.61) (0.00186807 0.00186807 3038.84) (0.00110733 0.00110733 2976.05) (0.00541955 0.00541955 2889.56) (0.175032 0.175032 2211.16) (0.00763905 0.00763905 1550.14) (-0.00148572 -0.00148572 542.643) (-0.00306042 -0.00306042 376.213) (-0.000908072 -0.000908072 854.815) (0.00627428 0.00627428 1475.82)
1550          (0.00718244 0.00718244 3051.39) (0.00187456 0.00187456 3035.11) (0.00168825 0.00168825 2997.16) (0.00107022 0.00107022 2937.24) (0.00644423 0.00644423 2854.73) (0.169284 0.169284 2187.35) (0.00800388 0.00800388 1565.9) (-0.000904871 -0.000904871 573.707) (-0.00232709 -0.00232709 393.455) (-0.000315177 -0.000315177 855.06) (0.00600817 0.00600817 1452.46)
1600          (-0.00961015 -0.00961015 3009.14) (-0.00741553 -0.00741553 2993.57) (-0.00601392 -0.00601392 2957.28) (-0.0216955 -0.0216955 2899.96) (0.0113254 0.0113254 2821) (-0.723051 -0.723051 2164.09) (0.00453693 0.00453693 1579.99) (0.0325535 0.0325535 604.122) (0.0228695 0.0228695 410.687) (0.00409642 0.00409642 855.17) (-0.0210114 -0.0210114 1430.21)
1650          (-0.00875906 -0.00875906 2968.73) (-0.0151032 -0.0151032 2953.8) (0.00399217 0.00399217 2919.02) (-0.0264147 -0.0264147 2864.09) (0.00751165 0.00751165 2788.44) (-0.693958 -0.693958 2141.55) (0.00307615 0.00307615 1592.58) (0.0330451 0.0330451 633.823) (0.0238588 0.0238588 427.886) (0.00405372 0.00405372 855.187) (-0.0213804 -0.0213804 1408.98)
1700          (-0.00818813 -0.00818813 2929.95) (-0.0193794 -0.0193794 2915.62) (0.00612426 0.00612426 2882.27) (-0.024813 -0.024813 2829.61) (0.00484832 0.00484832 2757.14) (-0.669785 -0.669785 2119.81) (0.00168183 0.00168183 1603.83) (0.0323059 0.0323059 662.78) (0.0239348 0.0239348 445.044) (0.0038878 0.0038878 855.147) (-0.0209682 -0.0209682 1388.72)
1750          (-0.00783117 -0.00783117 2892.71) (-0.0206429 -0.0206429 2878.96) (0.00615834 0.00615834 2846.96) (-0.0227763 -0.0227763 2796.46) (0.00300105 0.00300105 2726.98) (-0.647217 -0.647217 2098.78) (0.000414538 0.000414538 1613.86) (0.0314318 0.0314318 690.964) (0.0238925 0.0238925 462.144) (0.00373815 0.00373815 855.079) (-0.0203211 -0.0203211 1369.34)
1800          (0.00398244 0.00398244 2857) (-0.000513719 -0.000513719 2843.33) (0.00299374 0.00299373 2813.64) (0.000327175 0.000327175 2764.94) (-0.00442317 -0.00442317 2696.86) (0.0690196 0.0690196 2077.79) (0.000175032 0.000175032 1622.75) (-0.00467493 -0.00467493 718.344) (-0.00360949 -0.00360949 479.165) (-0.000535459 -0.000535459 855.012) (0.00358981 0.00358981 1350.81)
1850          (0.00911304 0.00911304 2822.65) (0.009868 0.009868 2809.76) (-0.0127409 -0.0127409 2781.35) (-0.00691794 -0.00691794 2733.58) (0.00481726 0.00481726 2668.94) (-0.000865923 -0.000865923 2057.83) (0.000322973 0.000322973 1630.65) (-0.00474341 -0.00474341 744.915) (-0.00390909 -0.00390909 496.095) (-0.000596485 -0.000596485 854.969) (0.00515642 0.00515642 1333.06)
1900          (0.014762 0.014762 2789.68) (0.0171703 0.0171703 2777.48) (-0.031971 -0.031971 2749.93) (-0.00327186 -0.00327186 2703.64) (0.00805137 0.00805137 2641.94) (0.0143276 0.0143276 2038.55) (0.000761509 0.000761509 1637.66) (-0.00740595 -0.00740595 770.669) (-0.00621915 -0.00621915 512.918) (-0.000945616 -0.000945616 854.968) (0.00647975 0.00647975 1316.05)
1950          (0.0143586 0.0143586 2757.95) (0.0156517 0.0156517 2746.22) (-0.0364969 -0.0364969 2719.61) (0.00407657 0.00407656 2674.99) (0.00471331 0.00471331 2615.69) (0.0483984 0.0483984 2019.91) (0.0010443 0.0010443 1643.84) (-0.00776714 -0.00776714 795.606) (-0.00667288 -0.00667288 529.618) (-0.00100791 -0.00100791 855.025) (0.00645235 0.00645235 1299.75)
2000          (0.0129062 0.0129062 2727.34) (0.0123769 0.0123769 2716.04) (-0.0350741 -0.0350741 2690.38) (0.00895967 0.00895967 2647.38) (0.00152731 0.00152731 2590.27) (0.065852 0.065852 2001.86) (0.00121878 0.00121878 1649.27) (-0.00735525 -0.00735525 819.729) (-0.00649147 -0.00649147 546.182) (-0.000983711 -0.000983711 855.155) (0.00616057 0.00616057 1284.1)
2050          (0.0115948 0.0115948 2697.81) (0.00923426 0.00923426 2686.91) (-0.0311806 -0.0311806 2662.16) (0.0111902 0.0111902 2620.71) (-0.000654989 -0.000654989 2565.68) (0.0743025 0.0743025 1984.36) (0.00136009 0.00136009 1654.02) (-0.00691947 -0.00691947 843.044) (-0.00627914 -0.00627914 562.596) (-0.000961457 -0.000961457 855.368) (0.00586427 0.00586427 1269.08)
2100          (0.0106429 0.0106429 2669.3) (0.00671107 0.00671107 2658.79) (-0.026393 -0.026393 2634.92) (0.0114624 0.0114624 2594.93) (-0.00201307 -0.00201307 2541.87) (0.0782213 0.0782213 1967.38) (0.00148378 0.00148378 1658.15) (-0.00653535 -0.00653535 865.561) (-0.00609872 -0.00609872 578.845) (-0.00094882 -0.00094882 855.674) (0.00559123 0.00559123 1254.65)
2150          (0.00998382 0.00998382 2641.78) (0.00485939 0.00485939 2631.63) (-0.0215669 -0.0215669 2608.59) (0.0105081 0.0105081 2570.01) (-0.00270877 -0.00270877 2518.82) (0.0796977 0.0796977 1950.89) (0.00159258 0.00159258 1661.72) (-0.00619239 -0.00619239 887.293) (-0.00594239 -0.00594239 594.919) (-0.000943597 -0.000943597 856.081) (0.00534004 0.00534004 1240.8)
2200          (0.00948072 0.00948072 2615.19) (0.00357016 0.00357016 2605.38) (-0.0171399 -0.0171399 2583.13) (0.00891777 0.00891777 2545.89) (-0.00289336 -0.00289336 2496.47) (0.0798117 0.0798117 1934.89) (0.0016875 0.0016875 1664.79) (-0.00587838 -0.00587838 908.254) (-0.00580044 -0.00580044 610.805) (-0.000943552 -0.000943552 856.593) (0.00510667 0.00510667 1227.48)
2250          (0.00901692 0.00901692 2589.49) (0.00269854 0.00269853 2580.01) (-0.0133264 -0.0133264 2558.52) (0.00713014 0.00713014 2522.54) (-0.00274092 -0.00274092 2474.82) (0.0791566 0.0791566 1919.34) (0.00176953 0.00176953 1667.39) (-0.00558582 -0.00558582 928.462) (-0.00566686 -0.00566686 626.493) (-0.000947158 -0.000947158 857.216) (0.00488789 0.00488789 1214.68)
2300          (0.00852721 0.00852721 2564.64) (0.00211458 0.00211458 2555.48) (-0.0102133 -0.0102133 2534.7) (0.00544447 0.00544447 2499.93) (-0.00242371 -0.00242371 2453.81) (0.0780583 0.0780583 1904.24) (0.0018398 0.0018398 1669.58) (-0.00531031 -0.00531031 947.934) (-0.00553827 -0.00553827 641.975) (-0.000953396 -0.000953396 857.951) (0.00468146 0.00468146 1202.38)
2350          (0.00799883 0.00799883 2540.6) (0.0017188 0.0017188 2531.74) (-0.00779348 -0.00779348 2511.64) (0.00402629 0.00402629 2478.02) (-0.0020743 -0.0020743 2433.44) (0.0766911 0.0766911 1889.56) (0.00189953 0.00189953 1671.38) (-0.0050492 -0.0050492 966.69) (-0.00541278 -0.00541278 657.241) (-0.000961563 -0.000961563 858.803) (0.00448577 0.00448577 1190.55)
2400          (0.00745326 0.00745326 2517.34) (0.0014425 0.0014425 2508.76) (-0.00598295 -0.00598295 2489.32) (0.00292326 0.00292326 2456.79) (-0.00176632 -0.00176632 2413.68) (0.0751503 0.0751503 1875.3) (0.00194987 0.00194987 1672.83) (-0.0048007 -0.0048007 984.748) (-0.00528932 -0.00528932 672.284) (-0.000971141 -0.000971141 859.77) (0.00429965 0.00429965 1179.18)
2450          (0.00692135 0.00692135 2494.81) (0.00124184 0.00124184 2486.5) (-0.00465459 -0.00465459 2467.69) (0.0021035 0.0021035 2436.21) (-0.00152231 -0.00152231 2394.5) (0.0734953 0.0734953 1861.43) (0.00199187 0.00199187 1673.97) (-0.00456359 -0.00456359 1002.13) (-0.00516722 -0.00516722 687.097) (-0.000981717 -0.000981717 860.853) (0.00412214 0.00412214 1168.25)
2500          (0.00642601 0.00642601 2472.99) (0.00109014 0.00109014 2464.94) (-0.00367857 -0.00367857 2446.73) (0.00150296 0.00150296 2416.25) (-0.00133648 -0.00133648 2375.87) (0.07177 0.07177 1847.94) (0.00202644 0.00202644 1674.82) (-0.00433693 -0.00433693 1018.85) (-0.00504611 -0.00504611 701.675) (-0.000992946 -0.000992946 862.052) (0.00395242 0.00395242 1157.74)
2550          (0.00597746 0.00597746 2451.85) (0.00097137 0.00097137 2444.05) (-0.00294903 -0.00294903 2426.4) (0.0010593 0.0010593 2396.89) (-0.00119456 -0.00119456 2357.79) (0.0700085 0.0700085 1834.83) (0.00205436 0.00205436 1675.4) (-0.00412006 -0.00412006 1034.94) (-0.00492582 -0.00492582 716.013) (-0.00100454 -0.00100454 863.366) (0.00378982 0.00378982 1147.64)
2600          (0.00557645 0.00557645 2431.35) (0.000875664 0.000875664 2423.79) (-0.00239053 -0.00239053 2406.7) (0.000725032 0.000725032 2378.1) (-0.00108362 -0.00108362 2340.22) (0.0682369 0.0682369 1822.07) (0.00207634 0.00207634 1675.74) (-0.00391245 -0.00391245 1050.42) (-0.00480628 -0.00480628 730.106) (-0.00101625 -0.00101625 864.792) (0.00363375 0.00363375 1137.93)
2650          (0.00521892 0.00521892 2411.48) (0.000796701 0.000796701 2404.15) (-0.00195268 -0.00195268 2387.58) (0.000467716 0.000467716 2359.85) (-0.000994419 -0.000994419 2323.15) (0.066474 0.066474 1809.65) (0.00209302 0.00209302 1675.85) (-0.00371371 -0.00371371 1065.3) (-0.00468753 -0.00468753 743.95) (-0.00102789 -0.00102789 866.328) (0.00348369 0.00348369 1128.6)
2700          (0.00489939 0.00489939 2392.2) (0.000730269 0.000730269 2385.09) (-0.00160223 -0.00160223 2369.02) (0.000265838 0.000265838 2342.14) (-0.000920861 -0.000920861 2306.56) (0.0647327 0.0647327 1797.57) (0.00210495 0.00210495 1675.77) (-0.00352346 -0.00352346 1079.61) (-0.00456967 -0.00456967 757.545) (-0.00103928 -0.00103928 867.973) (0.00333922 0.00333922 1119.64)
2750          (0.00461251 0.00461251 2373.49) (0.000673463 0.000673464 2366.6) (-0.00131691 -0.00131691 2351.01) (0.000104998 0.000104997 2324.94) (-0.000858902 -0.000858902 2290.43) (0.0630219 0.0630219 1785.82) (0.00211265 0.00211265 1675.5) (-0.0033414 -0.0033414 1093.36) (-0.0044528 -0.0044528 770.886) (-0.0010503 -0.0010503 869.721) (0.00319996 0.00319996 1111.03)
2800          (0.00435356 0.00435356 2355.34) (0.000624225 0.000624224 2348.64) (-0.00108134 -0.00108134 2333.52) (-2.47107e-05 -2.47106e-05 2308.22) (-0.000805799 -0.000805799 2274.75) (0.0613474 0.0613474 1774.37) (0.00211659 0.00211659 1675.06) (-0.00316721 -0.00316721 1106.57) (-0.00433705 -0.00433705 783.974) (-0.00106082 -0.00106082 871.572) (0.00306559 0.00306559 1102.77)
2850          (-0.00475526 -0.00475526 2337.88) (0.000951285 0.000951285 2331.27) (0.00484907 0.00484907 2316.69) (0.0024242 0.0024242 2292.18) (0.00154997 0.00154997 2259.34) (0.11942 0.11942 1763.11) (0.00329459 0.00329459 1674.45) (-0.00437313 -0.00437313 1119.28) (-0.00611993 -0.00611993 796.808) (-0.00156115 -0.00156115 873.521) (0.00396365 0.00396365 1094.84)
2900          (0.00576698 0.00576697 2320.87) (0.00273468 0.00273467 2314.25) (0.012698 0.012698 2300.83) (0.00562297 0.00562297 2276.6) (0.00633386 0.00633386 2244.24) (0.399259 0.399259 1751.95) (0.0203965 0.0203965 1673.69) (-0.0163059 -0.0163059 1131.48) (-0.0210613 -0.0210613 809.384) (-0.00588918 -0.00588918 875.565) (0.0142443 0.0142443 1087.25)
2950          (0.00975955 0.00975955 2304.53) (0.00465003 0.00465003 2298.15) (0.00992017 0.00992017 2284.58) (0.00630023 0.00630022 2261.29) (0.00970399 0.00970399 2230.02) (0.416992 0.416992 1741.46) (0.00950947 0.00950947 1672.76) (-0.0121101 -0.0121101 1143.21) (-0.0180541 -0.0180541 821.711) (-0.00480316 -0.00480316 877.7) (0.00914647 0.00914647 1079.96)
3000          (-0.00150037 -0.00150037 2289.38) (0.00415536 0.00415536 2283.25) (-0.00847507 -0.00847507 2269.03) (0.0235698 0.0235698 2246.65) (-0.0179234 -0.0179234 2215.71) (0.116436 0.116436 1730.67) (0.00449196 0.00449196 1671.73) (-0.00460917 -0.00460917 1154.48) (-0.00732704 -0.00732704 833.785) (-0.00212698 -0.00212698 879.922) (0.00463497 0.00463497 1072.97)
3050          (0.000121832 0.000121832 2274.47) (-0.00509166 -0.00509166 2268.4) (0.013062 0.013062 2254.35) (-0.0127983 -0.0127983 2232.23) (0.0158604 0.0158604 2201.8) (0.0999183 0.0999183 1720.25) (0.00443942 0.00443942 1670.56) (-0.00443184 -0.00443184 1165.31) (-0.00721636 -0.00721636 845.603) (-0.00216 -0.00216 882.227) (0.00453298 0.00453298 1066.28)
3100          (0.00108285 0.00108285 2259.75) (-0.00434267 -0.00434267 2253.77) (0.00610676 0.00610676 2239.94) (-0.00451131 -0.00451131 2218.22) (0.00748336 0.00748336 2188.43) (0.0899779 0.0899779 1710.31) (0.00365262 0.00365262 1669.28) (-0.00366318 -0.00366318 1175.7) (-0.00603324 -0.00603324 857.169) (-0.00184771 -0.00184771 884.61) (0.004272 0.004272 1059.88)
3150          (0.0026583 0.0026583 2245.46) (0.00477284 0.00477284 2239.58) (-0.00807937 -0.00807937 2225.97) (0.00890987 0.00890987 2204.63) (0.016968 0.016968 2175.22) (0.0382732 0.0382732 1700.48) (0.00179669 0.00179669 1667.87) (0.000184237 0.000184237 1185.68) (3.47562e-05 3.47563e-05 868.486) (-9.9156e-05 -9.9156e-05 887.071) (-0.000625752 -0.000625752 1053.77)
3200          (0.00152447 0.00152447 2231.33) (0.00212449 0.00212449 2225.56) (0.000280979 0.000280979 2212.23) (0.00251285 0.00251285 2191.34) (0.00507575 0.00507575 2162.78) (0.15939 0.15939 1691.29) (0.00586262 0.00586262 1666.37) (-0.00541416 -0.00541416 1195.26) (-0.00934303 -0.00934303 879.557) (-0.0030353 -0.0030353 889.602) (0.00545104 0.00545104 1047.92)
3250          (-0.0116963 -0.0116963 2217.64) (-0.00359446 -0.00359446 2211.98) (-0.00428889 -0.00428889 2198.93) (-0.00806147 -0.00806147 2178.49) (-0.0170146 -0.0170146 2150.45) (-0.450703 -0.450703 1682.09) (-0.0182011 -0.0182011 1664.79) (0.014134 0.014134 1204.47) (0.0258811 0.0258811 890.387) (0.00889431 0.00889431 892.203) (-0.0123412 -0.0123412 1042.35)
3300          (-0.00862828 -0.00862828 2204.19) (-0.000645141 -0.00064514 2198.66) (-0.000602504 -0.000602504 2185.9) (-0.000186288 -0.000186288 2165.92) (0.00311701 0.00311701 2138.5) (-0.179904 -0.179904 1673.23) (-0.00943561 -0.00943561 1663.15) (0.00526039 0.00526039 1213.29) (0.0117098 0.0117098 900.968) (0.00440449 0.00440449 894.866) (-0.00697267 -0.00697267 1037.03)
3350          (-0.00598589 -0.00598589 2191) (-0.000554223 -0.000554223 2185.59) (3.39377e-05 3.39378e-05 2173.12) (-0.00758028 -0.00758028 2153.62) (-0.0160313 -0.0160313 2126.92) (0.0287873 0.0287873 1664.74) (0.000896353 0.000896353 1661.46) (0.00116132 0.00116132 1221.76) (0.000705697 0.000705697 911.304) (5.80314e-05 5.80314e-05 897.587) (-0.000477605 -0.000477605 1031.96)
3400          (0.00146465 0.00146465 2178.11) (0.000576888 0.000576889 2172.83) (-0.00513688 -0.00513688 2160.67) (-0.0227958 -0.0227958 2141.65) (-0.0241804 -0.0241804 2115.58) (-0.0620517 -0.0620517 1656.39) (-0.00306184 -0.00306184 1659.73) (0.00346317 0.00346317 1229.89) (0.00545135 0.00545135 921.407) (0.00189059 0.00189059 900.366) (-0.00309116 -0.00309116 1027.13)
3450          (0.00116866 0.00116866 2165.54) (-0.00315906 -0.00315906 2160.39) (0.0056734 0.0056734 2148.52) (0.0265438 0.0265438 2129.98) (0.0225204 0.0225204 2104.56) (-0.0862464 -0.0862464 1648.22) (-0.00452348 -0.00452348 1657.97) (0.00239374 0.00239374 1237.69) (0.00594145 0.00594145 931.275) (0.00236419 0.00236419 903.197) (-0.0031324 -0.0031324 1022.54)
3500          (0.000300405 0.000300405 2153.27) (0.00625218 0.00625218 2148.25) (-0.00571737 -0.00571737 2136.67) (-0.0277476 -0.0277476 2118.58) (-0.0241008 -0.0241008 2093.8) (-0.0540643 -0.0540643 1640.3) (-0.00385545 -0.00385545 1656.18) (0.00278462 0.00278462 1245.17) (0.00541197 0.00541197 940.912) (0.00210149 0.00210149 906.077) (-0.00289581 -0.00289581 1018.19)
3550          (0.00224459 0.00224459 2141.3) (-0.00849029 -0.00849029 2136.4) (0.00555247 0.00555247 2125.11) (0.0272801 0.0272801 2107.48) (0.0204492 0.0204492 2083.32) (-0.0807732 -0.0807732 1632.53) (-0.00391933 -0.00391933 1654.36) (0.0022387 0.0022387 1252.35) (0.00529261 0.00529261 950.321) (0.0021922 0.0021922 909.002) (-0.00271953 -0.00271953 1014.05)
3600          (-0.000744998 -0.000744998 2129.62) (0.0107529 0.0107529 2124.84) (-0.00525887 -0.00525887 2113.83) (-0.0268943 -0.0268943 2096.62) (-0.0215738 -0.0215738 2073.07) (-0.0508917 -0.0508917 1624.97) (-0.00386321 -0.00386321 1652.51) (0.00229274 0.00229274 1259.23) (0.00510698 0.00510698 959.506) (0.00213561 0.00213561 911.968) (-0.00258209 -0.00258209 1010.14)
3650          (0.00308932 0.00308932 2118.23) (-0.0120914 -0.0120914 2113.56) (0.00496731 0.00496731 2102.83) (0.0259028 0.0259028 2086.06) (0.0182175 0.0182175 2063.09) (-0.0746249 -0.0746249 1617.56) (-0.00369693 -0.00369693 1650.64) (0.00198413 0.00198413 1265.84) (0.00484731 0.00484731 968.471) (0.00211485 0.00211485 914.974) (-0.00238586 -0.00238586 1006.45)
3700          (-0.00146827 -0.00146827 2107.11) (0.0135502 0.0135502 2102.57) (-0.00458391 -0.00458391 2092.09) (-0.0252607 -0.0252607 2075.72) (-0.019419 -0.019419 2053.32) (-0.0480963 -0.0480963 1610.36) (-0.00372623 -0.00372623 1648.75) (0.00193351 0.00193351 1272.19) (0.00473488 0.00473488 977.219) (0.00210908 0.00210908 918.014) (-0.00226239 -0.00226239 1002.96)
3750          (0.00360883 0.00360883 2096.27) (-0.0141842 -0.0141842 2091.82) (0.0042874 0.0042874 2081.61) (0.024243 0.024243 2065.65) (0.016431 0.016431 2043.8) (-0.0689383 -0.0689383 1603.29) (-0.0035365 -0.0035365 1646.83) (0.00171167 0.00171167 1278.27) (0.00446671 0.00446671 985.754) (0.00206007 0.00206007 921.087) (-0.00208225 -0.00208225 999.67)
3800          (-0.00190157 -0.00190157 2085.68) (0.0150734 0.0150734 2081.36) (-0.00388842 -0.00388842 2071.38) (-0.0235709 -0.0235709 2055.8) (-0.0177058 -0.0177058 2034.49) (-0.045322 -0.045322 1596.4) (-0.00357063 -0.00357063 1644.9) (0.00163817 0.00163817 1284.11) (0.00436845 0.00436845 994.081) (0.0020642 0.0020642 924.189) (-0.00196346 -0.00196346 996.581)
3850          (0.00388332 0.00388332 2075.35) (-0.0152329 -0.0152329 2071.12) (0.00363595 0.00363595 2061.39) (0.0226363 0.0226363 2046.2) (0.0150338 0.0150338 2025.4) (-0.0638189 -0.0638189 1589.65) (-0.00338876 -0.00338876 1642.95) (0.00145633 0.00145633 1289.72) (0.00411701 0.00411701 1002.2) (0.00200826 0.00200826 927.317) (-0.00180113 -0.00180113 993.683)
3900          (-0.002134 -0.002134 2065.27) (0.0157557 0.0157557 2061.15) (-0.00325412 -0.00325412 2051.64) (-0.0219947 -0.0219947 2036.81) (-0.0163412 -0.0163412 2016.51) (-0.0425616 -0.0425616 1583.07) (-0.00341684 -0.00341684 1640.99) (0.00138221 0.00138221 1295.09) (0.0040231 0.0040231 1010.12) (0.00201242 0.00201242 930.469) (-0.00168758 -0.00168758 990.972)
3950          (0.00399613 0.00399613 2055.43) (-0.0156144 -0.0156144 2051.39) (0.00306365 0.00306365 2042.13) (0.0211674 0.0211674 2027.66) (0.0139255 0.0139255 2007.84) (-0.0592154 -0.0592154 1576.62) (-0.00324606 -0.00324606 1639.02) (0.00122575 0.00122575 1300.25) (0.00379114 0.00379114 1017.85) (0.00195499 0.00195499 933.642) (-0.00154104 -0.00154104 988.444)
4000          (-0.0022373 -0.0022373 2045.81) (0.0159115 0.0159115 2041.89) (-0.00271036 -0.00271036 2032.83) (-0.020569 -0.020569 2018.69) (-0.0152272 -0.0152272 1999.35) (-0.0398573 -0.0398573 1570.33) (-0.00326823 -0.00326823 1637.03) (0.00115666 0.00115666 1305.2) (0.00370097 0.00370097 1025.38) (0.00195718 0.00195718 936.833) (-0.00143357 -0.00143357 986.092)