# Probe 0 (0.0015 0.0015 0)
# Probe 1 (0.0015 0.0015 0.01)
# Probe 2 (0.0015 0.0015 0.02)
# Probe 3 (0.0015 0.0015 0.03)
# Probe 4 (0.0015 0.0015 0.04)
# Probe 5 (0.0015 0.0015 0.05)
# Probe 6 (0.0015 0.0015 0.06)
# Probe 7 (0.0015 0.0015 0.07)
# Probe 8 (0.0015 0.0015 0.08)
# Probe 9 (0.0015 0.0015 0.09)
# Probe 10 (0.0015 0.0015 0.1)
# Time        0             1             2             3             4             5             6             7             8             9             10           
50            (-3.29569e-11 -1.60295e-10 -6.0896e-11) (9.96802e-14 -1.16401e-10 7.40747e-10) (-8.32317e-11 4.34884e-11 1.38554e-09) (4.53759e-11 8.65516e-11 1.82721e-09) (4.36955e-11 9.11635e-11 2.80526e-09) (-4.92494e-11 3.22886e-11 4.45336e-09) (3.48359e-11 -4.37554e-11 4.30203e-09) (2.45221e-11 7.80701e-12 4.40809e-09) (-5.89425e-12 -7.07864e-12 4.59822e-09) (1.15795e-11 6.05959e-12 4.44564e-09) (-7.78209e-12 4.83174e-13 4.41002e-09)
100           (-1.26947e-10 -3.90298e-11 -4.89197e-11) (-9.45184e-11 -1.07759e-10 2.58343e-10) (-1.03424e-12 -1.07952e-13 1.29758e-09) (4.51484e-11 -3.30425e-11 1.96743e-09) (-4.37566e-11 -1.60897e-10 3.00801e-09) (1.04247e-11 4.66576e-11 5.518e-09) (2.09142e-14 -7.53257e-12 5.18246e-09) (-1.39852e-11 -5.64948e-12 5.24992e-09) (7.70526e-12 7.68377e-12 5.36254e-09) (-2.92809e-11 1.29522e-11 5.21845e-09) (1.43044e-11 -5.27746e-12 5.17223e-09)
150           (-1.59464e-10 3.58283e-11 1.06339e-11) (3.5056e-12 -1.25842e-10 4.38046e-10) (4.36497e-11 -9.02708e-11 1.35697e-09) (6.53622e-11 -6.92285e-12 2.48954e-09) (4.67825e-11 4.09865e-11 3.10675e-09) (-8.83853e-11 -9.44231e-11 4.84004e-09) (-1.67473e-11 -1.40433e-11 4.56973e-09) (3.0565e-11 -2.04279e-12 4.64133e-09) (8.96703e-12 2.09611e-11 4.85654e-09) (-1.28759e-11 7.06188e-12 4.73233e-09) (2.43405e-13 2.06712e-11 4.5954e-09)
200           (1.51395e-10 -7.00317e-11 -1.1358e-10) (-4.70874e-11 -1.25385e-10 7.76673e-10) (7.56091e-12 1.22996e-10 1.72729e-09) (-1.65118e-10 1.27321e-10 2.3931e-09) (1.20975e-10 8.24118e-12 3.52212e-09) (-1.23057e-10 4.90114e-11 5.95668e-09) (1.2585e-11 -3.70737e-13 5.67483e-09) (1.98227e-12 1.9642e-11 5.74432e-09) (-7.9286e-12 6.92327e-12 5.92275e-09) (-7.08235e-12 -6.77154e-12 5.81458e-09) (-2.24254e-11 2.41169e-13 5.74658e-09)
250           (-1.17665e-10 4.30527e-11 -8.59479e-11) (4.525e-11 5.10741e-11 4.69784e-10) (-4.55951e-13 4.51538e-13 1.56248e-09) (1.30676e-10 3.65193e-11 2.21085e-09) (-9.48703e-11 3.89262e-11 3.15557e-09) (-2.33513e-11 -6.75613e-11 5.15492e-09) (5.65697e-12 -6.43954e-12 4.77124e-09) (-1.51925e-11 1.46517e-11 4.74976e-09) (-4.9234e-12 3.62527e-11 4.87385e-09) (6.79162e-12 -6.71287e-12 4.75592e-09) (-5.63106e-12 5.83989e-12 4.70119e-09)
300           (4.29357e-13 -4.44375e-11 4.45844e-11) (3.75286e-11 -3.73088e-11 8.94051e-10) (3.88517e-11 -3.07304e-11 1.40883e-09) (6.17591e-12 -4.65059e-11 2.10974e-09) (-7.51549e-11 1.24533e-10 2.55545e-09) (1.35832e-10 8.88869e-11 4.08651e-09) (4.20637e-11 1.45122e-11 3.86616e-09) (5.7125e-12 1.11685e-11 3.87454e-09) (-6.26276e-12 -2.22531e-11 4.00632e-09) (2.40282e-11 5.9784e-12 3.8358e-09) (-1.56025e-13 -6.87523e-13 3.75524e-09)
350           (-7.18239e-11 -6.13951e-12 1.04953e-10) (1.65172e-10 1.28001e-10 4.62974e-10) (-4.69057e-11 -2.1478e-11 5.96946e-10) (2.75472e-12 4.04846e-12 1.37303e-09) (4.8305e-11 2.84776e-11 1.97151e-09) (7.658e-11 3.09271e-11 2.78305e-09) (-3.67025e-11 4.37224e-11 2.62159e-09) (8.8177e-12 -6.11189e-12 2.67899e-09) (4.0092e-13 2.0412e-12 2.80428e-09) (1.45271e-12 1.35867e-11 2.7119e-09) (-2.47835e-11 1.56839e-11 2.67158e-09)
400           (1.19716e-11 -1.43523e-10 1.66562e-10) (-1.37633e-12 3.27354e-11 7.04174e-10) (1.28192e-10 -8.39743e-11 1.30403e-09) (3.68628e-11 -3.89024e-12 1.945e-09) (-3.74353e-11 -8.62945e-12 2.90184e-09) (1.47841e-11 2.48948e-11 5.00254e-09) (4.75766e-12 1.22835e-11 4.69945e-09) (-1.64047e-11 -7.04016e-12 4.68444e-09) (-5.86531e-12 5.71781e-12 4.84377e-09) (5.63301e-12 -8.40545e-12 4.73817e-09) (-7.92908e-12 7.46967e-12 4.80538e-09)
450           (-8.59194e-11 -3.893e-11 5.84711e-11) (-6.2859e-12 3.21566e-11 5.07537e-10) (-3.5559e-11 4.5456e-11 1.19097e-09) (3.89187e-11 -2.12286e-10 2.10692e-09) (-2.08845e-10 -1.18106e-10 2.98129e-09) (8.22867e-12 1.1352e-10 5.04778e-09) (3.54168e-12 -6.37416e-12 4.87906e-09) (-1.08138e-11 1.48269e-11 4.89367e-09) (6.4013e-12 -1.24527e-11 5.01466e-09) (1.34182e-11 2.49864e-11 4.98291e-09) (-2.90142e-11 2.73424e-11 4.93702e-09)
500           (-3.89953e-11 -1.0077e-10 3.28007e-12) (-9.40561e-12 4.22059e-11 9.85663e-10) (-4.36356e-11 -4.20705e-11 1.37866e-09) (-4.33846e-11 -1.34003e-10 2.34768e-09) (7.77792e-11 8.8152e-11 3.42304e-09) (-4.30223e-11 1.26841e-10 5.67729e-09) (1.30906e-11 1.41596e-11 5.28867e-09) (-2.71665e-11 -1.34471e-12 5.28482e-09) (-2.07703e-11 7.49464e-12 5.45361e-09) (4.41115e-12 -1.16207e-11 5.30823e-09) (9.11605e-12 -5.59389e-12 5.20929e-09)
550           (6.46584e-11 -5.22505e-11 -2.40328e-11) (5.74982e-11 2.05685e-10 8.02301e-10) (-4.03138e-12 -1.2402e-10 1.33909e-09) (-4.02435e-11 -9.55758e-12 2.15051e-09) (-1.39647e-10 -4.14893e-12 2.5769e-09) (7.99581e-11 -5.60975e-11 4.73805e-09) (-6.18683e-12 -2.10787e-11 4.38987e-09) (-2.03722e-12 2.09043e-12 4.4418e-09) (-1.24196e-11 7.82039e-12 4.54228e-09) (-7.36646e-12 1.55386e-11 4.38401e-09) (-1.61368e-11 7.92637e-12 4.31882e-09)
600           (-7.73285e-11 -3.83679e-11 6.19375e-11) (-4.7006e-11 1.20121e-10 6.3583e-10) (-7.82466e-11 -9.03141e-11 1.21555e-09) (-8.55751e-11 -4.94066e-11 2.38811e-09) (-4.17367e-11 -1.09119e-11 3.0821e-09) (-3.68959e-11 5.64311e-12 5.24346e-09) (-1.54473e-13 -1.38862e-13 4.91356e-09) (-1.28001e-11 -7.18659e-12 4.87962e-09) (-7.14581e-12 -4.34624e-11 5.06362e-09) (-3.36147e-12 1.57835e-11 4.97814e-09) (-2.09624e-11 1.52573e-11 4.8823e-09)
650           (8.84665e-11 -1.49548e-10 -3.90259e-11) (3.70302e-11 1.65949e-12 6.03712e-10) (-1.2355e-10 -1.03481e-10 1.23316e-09) (6.9866e-11 8.19765e-11 2.1929e-09) (-1.64173e-10 1.348e-10 2.71025e-09) (-8.13252e-11 3.87812e-11 4.6032e-09) (3.72655e-11 -3.28057e-12 4.25075e-09) (-1.46251e-11 1.21179e-11 4.23094e-09) (1.38833e-11 5.34362e-12 4.38979e-09) (6.10753e-12 -7.83688e-12 4.2283e-09) (-3.21136e-13 8.79714e-12 4.23768e-09)
700           (-3.86809e-11 3.48165e-11 -1.91348e-13) (-1.38486e-10 -3.5765e-11 8.00845e-10) (3.21148e-12 -3.69367e-11 1.47687e-09) (-1.16515e-10 -1.89136e-10 2.00684e-09) (9.49039e-12 -3.17852e-11 2.63285e-09) (-8.19947e-11 7.23728e-11 4.57757e-09) (2.12869e-11 -1.80436e-13 4.42104e-09) (5.83096e-12 -9.81454e-12 4.43645e-09) (5.85883e-12 1.34834e-11 4.55368e-09) (1.84987e-13 -7.57226e-13 4.45608e-09) (-6.37472e-12 -2.93454e-12 4.43894e-09)
750           (4.30286e-11 -4.24186e-11 2.43319e-11) (-1.641e-10 -4.18947e-11 5.79536e-10) (8.14937e-11 4.74551e-13 1.14277e-09) (-1.25854e-10 4.69315e-11 1.91961e-09) (-5.62309e-12 6.89306e-12 2.89876e-09) (-1.34319e-10 -2.46174e-10 4.48313e-09) (1.57762e-11 -1.41431e-11 4.2473e-09) (2.60337e-11 -1.59761e-12 4.22654e-09) (-1.50587e-11 1.41558e-13 4.43418e-09) (-5.65044e-12 1.51778e-11 4.24819e-09) (-7.76476e-12 1.42045e-11 4.21667e-09)
800           (3.66553e-11 -3.72955e-12 1.03328e-11) (-4.77018e-11 8.30156e-11 3.95088e-10) (4.47161e-11 8.80336e-11 1.80635e-09) (4.36922e-11 -4.3238e-11 2.81592e-09) (9.4518e-11 4.59334e-12 3.82685e-09) (3.75002e-11 -6.28905e-11 5.71726e-09) (2.71306e-12 1.33657e-12 5.47861e-09) (-7.18405e-12 -9.17095e-12 5.53433e-09) (-7.63735e-12 2.07798e-11 5.68751e-09) (1.45356e-11 -4.51665e-13 5.58152e-09) (1.19235e-11 -1.52183e-12 5.55879e-09)
850           (2.06582e-10 -3.32109e-12 4.43783e-11) (3.22993e-11 -8.7898e-11 2.37603e-10) (-8.02641e-13 3.58887e-11 1.31702e-09) (1.14454e-11 -7.48243e-11 2.0713e-09) (4.63208e-11 3.66267e-14 3.17376e-09) (-2.78747e-11 -4.31674e-11 5.38746e-09) (-1.32514e-12 9.34375e-14 5.06734e-09) (-1.3684e-11 -2.11582e-11 5.05072e-09) (7.79826e-12 5.60043e-12 5.18906e-09) (1.41273e-11 1.38742e-11 5.1053e-09) (6.93332e-13 1.53513e-11 5.02007e-09)
900           (4.94142e-11 -3.36782e-11 2.69441e-11) (-7.90988e-11 -8.51457e-11 3.38516e-10) (4.02349e-11 -4.17504e-11 1.30108e-09) (-2.25276e-12 -9.67976e-12 1.68086e-09) (9.34961e-11 1.44841e-12 2.59652e-09) (-5.14267e-11 8.36132e-11 4.69848e-09) (-1.96646e-11 2.68713e-11 4.40599e-09) (5.78187e-12 -2.99306e-11 4.40412e-09) (6.25747e-12 2.46128e-12 4.49598e-09) (-4.886e-13 -1.26342e-12 4.37917e-09) (-2.92556e-11 -6.99441e-12 4.29551e-09)
950           (2.19438e-13 -3.83362e-11 7.83817e-11) (5.06942e-11 9.02902e-11 4.96483e-10) (1.58894e-10 -4.80522e-11 1.6199e-09) (7.89465e-11 1.66598e-10 2.45577e-09) (-1.07993e-10 5.00172e-11 3.03395e-09) (-1.25436e-10 2.69716e-11 5.11005e-09) (2.1541e-11 -1.66117e-11 4.82349e-09) (-2.3912e-11 -3.48588e-11 4.84198e-09) (8.54171e-12 1.529e-11 5.0498e-09) (-6.10395e-12 -1.4652e-11 4.90357e-09) (-1.60427e-12 1.41208e-11 4.83849e-09)
1000          (-2.97931e-11 7.90393e-11 8.45758e-11) (-1.32754e-10 -4.28501e-11 5.37248e-10) (-4.03037e-11 -4.38447e-12 1.07633e-09) (-4.23644e-11 3.40722e-11 1.94111e-09) (8.38878e-12 1.65663e-10 2.71395e-09) (-1.30897e-10 -4.24802e-11 4.91518e-09) (-7.02606e-12 3.62971e-12 4.47546e-09) (-8.33727e-12 -9.05957e-12 4.53597e-09) (6.92775e-12 1.25668e-11 4.69315e-09) (-1.44921e-13 -1.53008e-11 4.58334e-09) (7.98447e-12 -6.43585e-12 4.5283e-09)
1050          (-6.99114e-11 -1.61364e-10 3.70165e-11) (-4.00091e-11 -7.494e-11 8.75508e-10) (3.46548e-11 -4.95308e-12 1.41214e-09) (1.33505e-11 -1.31429e-10 1.97521e-09) (7.63164e-11 -1.20303e-10 2.54443e-09) (1.67851e-12 -6.35272e-12 4.56325e-09) (1.27467e-11 2.25717e-11 4.25562e-09) (2.18123e-11 -1.40836e-11 4.30883e-09) (8.43889e-12 6.24669e-12 4.44585e-09) (-1.35397e-11 -7.08845e-12 4.33981e-09) (-1.42696e-11 2.96532e-11 4.28194e-09)
1100          (2.63483e-11 4.24421e-11 2.12101e-11) (4.29215e-11 -1.27619e-11 5.56819e-10) (-3.93445e-11 -1.31502e-11 1.54775e-09) (4.52826e-12 1.23562e-10 2.18605e-09) (1.13249e-10 -5.14775e-11 3.06801e-09) (9.73911e-12 -6.16448e-12 5.25962e-09) (-7.76397e-12 1.43932e-11 4.82036e-09) (-6.34314e-12 1.48036e-11 4.87367e-09) (7.56375e-13 -1.32911e-11 5.03376e-09) (-1.66088e-11 1.39968e-11 4.84429e-09) (-8.60623e-12 -1.586e-11 4.73828e-09)
1150          (7.9179e-11 -6.23973e-11 -6.39437e-11) (4.9011e-11 5.3054e-11 6.52426e-10) (7.66334e-11 -1.70711e-10 1.35195e-09) (-2.97087e-11 -7.23021e-11 2.01613e-09) (5.64336e-11 7.41638e-11 3.16645e-09) (1.42572e-10 1.37218e-10 5.49498e-09) (-1.41817e-11 1.57997e-13 5.07291e-09) (-6.40019e-12 -9.24006e-12 5.07435e-09) (2.56752e-12 -7.30501e-12 5.18552e-09) (-9.24239e-12 1.89637e-11 5.02215e-09) (-7.54762e-13 2.11805e-11 4.95899e-09)
1200          (-2.03405e-10 -1.66108e-10 5.35252e-11) (-3.82524e-11 -4.39691e-11 6.81045e-10) (-1.01295e-10 5.94173e-11 8.91113e-10) (-1.62674e-10 9.42606e-11 1.73371e-09) (1.13828e-10 -3.25303e-11 2.59075e-09) (-1.22366e-10 1.41946e-10 4.37067e-09) (-6.38163e-12 2.94725e-11 4.03937e-09) (4.77777e-14 2.07445e-11 4.05049e-09) (-2.7897e-12 1.35178e-11 4.19665e-09) (5.90786e-12 -1.88823e-11 4.12666e-09) (-1.47993e-11 1.18793e-12 4.06971e-09)
1250          (4.22266e-11 1.01166e-11 -4.17767e-11) (7.83377e-11 -4.48154e-11 8.37292e-10) (-7.80992e-11 2.61043e-11 1.88213e-09) (6.71512e-12 1.06388e-10 2.82479e-09) (2.77924e-11 -8.9406e-11 3.57444e-09) (7.11161e-11 4.74075e-11 5.55206e-09) (-1.27357e-11 1.47021e-11 5.36562e-09) (-1.36637e-11 1.96572e-13 5.31551e-09) (-1.42458e-12 1.31064e-11 5.45636e-09) (8.82422e-12 -3.32315e-11 5.37662e-09) (5.50418e-12 -5.79755e-12 5.26907e-09)
1300          (-1.14039e-10 -4.53865e-11 -4.56266e-11) (-3.63945e-11 -5.78976e-12 6.92318e-10) (5.07302e-12 3.60438e-12 1.84955e-09) (-3.72781e-11 -2.96842e-12 2.40857e-09) (1.6626e-10 4.21066e-11 3.38328e-09) (-9.09812e-11 4.74603e-11 5.74132e-09) (-4.56196e-13 1.39056e-11 5.54781e-09) (-1.42188e-12 -2.29516e-11 5.54201e-09) (-2.38125e-11 8.56329e-13 5.67593e-09) (1.47791e-11 -1.41264e-11 5.53562e-09) (2.10252e-11 -2.20081e-11 5.53143e-09)
1350          (3.62709e-11 -6.98944e-11 6.72114e-11) (-4.97634e-11 5.01253e-11 5.62901e-10) (-5.24619e-11 1.57447e-10 1.44693e-09) (5.11909e-11 1.96018e-10 2.06933e-09) (4.80473e-11 3.53406e-11 2.89559e-09) (5.34286e-11 3.26882e-11 4.83166e-09) (-6.28365e-12 2.10954e-11 4.60229e-09) (2.68146e-11 1.51863e-11 4.61827e-09) (-1.55471e-11 1.45571e-11 4.78804e-09) (1.31076e-13 2.73475e-11 4.58629e-09) (1.83504e-11 8.59213e-12 4.58188e-09)
1400          (4.26107e-11 9.77292e-11 -1.93819e-10) (-1.88946e-12 -9.52707e-12 2.49782e-10) (2.27066e-11 3.70018e-11 1.20328e-09) (1.42234e-11 -4.34713e-11 1.93761e-09) (7.84141e-11 -2.00141e-12 2.42311e-09) (-1.5044e-10 8.14426e-11 4.33999e-09) (4.44188e-12 1.39784e-11 4.01569e-09) (-2.18672e-11 -7.65341e-12 4.09883e-09) (9.00704e-12 6.22115e-12 4.25146e-09) (1.58365e-11 -7.70768e-12 4.14262e-09) (-1.29054e-12 7.54878e-13 4.07259e-09)
1450          (7.88562e-11 8.69401e-11 3.96616e-12) (-8.77511e-11 8.51981e-11 4.38481e-10) (-1.52837e-10 7.28914e-14 1.16498e-09) (5.06917e-12 -4.30284e-11 2.09864e-09) (-6.31381e-13 8.03337e-11 3.10334e-09) (-7.95043e-11 -2.03861e-12 5.51108e-09) (1.54074e-11 -1.61718e-11 5.09513e-09) (6.82405e-12 7.88384e-12 5.04205e-09) (-1.42326e-11 1.58316e-11 5.1381e-09) (4.75572e-13 -5.00169e-12 5.02511e-09) (-9.17869e-12 1.24212e-12 5.04074e-09)
1500          (-1.176e-10 3.43169e-11 -1.15599e-10) (-2.95214e-12 -5.38208e-11 4.08512e-10) (3.4213e-13 3.53071e-11 9.95742e-10) (9.01285e-11 2.91592e-12 1.81671e-09) (-1.22071e-10 9.1093e-11 2.89553e-09) (-4.74133e-11 -2.98153e-11 5.59679e-09) (1.59548e-12 -8.18987e-12 5.2597e-09) (-3.90086e-12 -9.91911e-12 5.06484e-09) (2.24549e-11 1.22538e-11 4.8807e-09) (7.675e-12 -7.56454e-12 4.78046e-09) (2.35819e-11 1.97552e-11 4.70916e-09)
1550          (7.00734e-11 -6.64725e-11 6.83466e-12) (-3.58418e-11 -1.0755e-10 6.46529e-10) (-1.24278e-10 -1.07912e-11 1.51648e-09) (4.76871e-11 1.30805e-10 2.05264e-09) (-7.01429e-12 -8.98647e-11 3.08483e-09) (-1.9896e-10 -3.93372e-11 5.2332e-09) (2.40564e-11 -2.60543e-11 4.85288e-09) (1.36075e-12 2.12661e-11 4.79165e-09) (-5.38773e-13 -6.60616e-12 4.74268e-09) (-1.31548e-12 5.70298e-12 4.69241e-09) (2.86386e-11 -5.75836e-12 4.60905e-09)
1600          (-1.38108e-10 -4.49633e-11 2.47949e-11) (-8.63721e-11 -1.56914e-12 8.14708e-10) (-4.06758e-11 3.9174e-11 1.34546e-09) (8.56527e-11 -9.22925e-12 2.12812e-09) (1.25938e-10 1.10525e-10 3.1705e-09) (-7.18485e-11 4.11314e-11 5.50004e-09) (2.09667e-11 -1.19361e-11 5.18793e-09) (1.43232e-12 -4.22568e-11 5.35065e-09) (-1.42924e-11 9.25804e-12 5.40759e-09) (1.3628e-11 7.92734e-12 5.5448e-09) (-1.36015e-11 1.15279e-12 5.60709e-09)
1650          (-3.90439e-11 -8.42051e-11 -1.78185e-11) (-4.4229e-11 -4.75368e-11 5.26099e-10) (-8.07742e-11 1.12235e-10 1.65826e-09) (3.99304e-11 -4.91424e-11 2.48823e-09) (1.16293e-11 3.9957e-12 3.80272e-09) (4.39568e-11 -1.2426e-10 6.55065e-09) (-1.51418e-11 7.09982e-12 6.32673e-09) (-8.13027e-12 1.39719e-11 6.47939e-09) (-5.63969e-12 -1.3566e-11 6.61479e-09) (-1.0538e-11 -2.05013e-13 6.87316e-09) (6.99613e-12 2.30306e-12 6.98469e-09)
1700          (1.24976e-10 -8.89326e-11 8.30185e-11) (-3.81372e-11 -2.75447e-11 7.02814e-10) (-8.32998e-11 -8.08083e-12 1.37696e-09) (4.30233e-11 2.72229e-11 2.66797e-09) (5.73183e-11 1.21861e-10 3.49813e-09) (-5.71066e-12 -1.73195e-10 6.55434e-09) (5.21958e-12 5.76593e-12 6.16468e-09) (1.83507e-12 -6.79417e-12 6.30564e-09) (2.31295e-11 5.20202e-12 6.47989e-09) (-7.63054e-12 -4.77653e-12 6.62759e-09) (7.79654e-12 4.80668e-12 6.72093e-09)
1750          (-1.29444e-10 -7.35172e-11 1.44447e-10) (9.19927e-11 -1.10646e-11 7.64605e-10) (-7.89207e-11 -9.457e-11 1.78996e-09) (8.99162e-11 -5.92989e-12 3.17668e-09) (7.71305e-11 7.80302e-11 3.55011e-09) (3.66e-11 8.03034e-11 6.0396e-09) (-6.74326e-12 8.61981e-13 5.74448e-09) (-7.80871e-12 -2.04543e-11 5.96264e-09) (-7.05997e-12 4.8788e-12 6.14758e-09) (7.07563e-12 5.32363e-13 6.30443e-09) (5.0077e-12 -8.25757e-13 6.37906e-09)
1800          (7.95164e-11 -3.94024e-11 1.52343e-11) (-2.62e-11 8.31549e-11 3.85383e-10) (-9.03259e-11 -8.69655e-11 1.05129e-09) (-7.51273e-11 4.70927e-11 2.09594e-09) (-5.10123e-11 -1.68254e-11 3.09226e-09) (-4.01805e-11 -3.46303e-12 5.14515e-09) (2.14704e-11 -5.7301e-13 4.82722e-09) (-2.08953e-11 -1.96573e-12 4.96737e-09) (2.13988e-11 5.79398e-12 5.13127e-09) (-3.25499e-12 2.11827e-11 5.32858e-09) (7.7505e-12 -2.75102e-11 5.37457e-09)
1850          (6.15483e-12 4.47944e-11 -5.21759e-11) (-6.69863e-11 -3.60662e-11 9.88281e-10) (8.31515e-11 4.80954e-11 2.01142e-09) (-7.49091e-13 1.32793e-10 2.97032e-09) (9.69056e-11 1.03668e-10 4.44618e-09) (8.25947e-11 -1.48101e-11 7.55216e-09) (7.84847e-12 5.13888e-12 7.11862e-09) (-1.49076e-11 -3.76077e-11 6.87497e-09) (8.17018e-12 -1.19896e-12 6.70054e-09) (-6.16836e-12 1.26254e-11 6.72958e-09) (-8.87404e-12 -7.81482e-12 6.87345e-09)
1900          (7.83127e-11 -8.16221e-13 -3.34562e-11) (-2.99066e-12 1.52929e-10 8.46932e-10) (1.29019e-10 8.345e-11 1.66936e-09) (-7.15425e-11 8.53651e-11 2.80639e-09) (-1.09206e-10 6.58101e-12 4.01908e-09) (-7.81065e-11 8.76966e-11 6.70026e-09) (-6.70126e-13 8.95457e-13 6.34853e-09) (7.08482e-12 4.09843e-12 6.22411e-09) (1.43478e-11 -7.14121e-12 6.03249e-09) (1.22304e-11 5.0644e-12 6.05854e-09) (-2.75799e-11 -1.57751e-11 6.17452e-09)
1950          (-3.73972e-11 4.21975e-11 1.79476e-10) (-1.67664e-10 -8.42906e-11 5.83733e-10) (8.22991e-11 -1.47077e-12 1.51465e-09) (-8.23499e-11 -8.78632e-11 2.25439e-09) (-3.70709e-11 -7.50764e-11 3.66228e-09) (4.08304e-11 -9.40641e-11 6.78963e-09) (-6.07521e-13 -2.32726e-13 6.30022e-09) (-6.95379e-12 -9.71367e-12 6.09632e-09) (-1.37729e-11 1.52326e-11 5.99003e-09) (1.59078e-11 2.03967e-11 6.08487e-09) (-5.67386e-12 -7.05179e-12 6.13763e-09)
2000          (-7.11123e-11 1.27563e-10 4.81556e-11) (-7.5492e-11 -4.5661e-11 8.76761e-10) (3.76712e-11 -4.03575e-11 1.42402e-09) (-3.30552e-12 -6.88413e-11 2.03093e-09) (-1.05269e-11 4.30873e-11 3.27868e-09) (6.03135e-13 -4.1481e-11 6.00774e-09) (6.93493e-12 6.78692e-12 5.42445e-09) (-1.30838e-13 -8.52053e-12 5.27927e-09) (6.94884e-13 -1.53094e-11 5.13164e-09) (-1.31109e-11 2.14173e-11 5.17204e-09) (2.10339e-12 2.08709e-12 5.32669e-09)
2050          (2.81741e-11 -8.71461e-11 -3.48795e-11) (-2.31511e-12 8.98379e-12 7.95344e-10) (-4.79195e-11 6.85321e-11 1.87998e-09) (-4.49974e-11 -1.19644e-11 2.56557e-09) (5.31878e-11 1.33561e-10 4.11946e-09) (-6.64237e-12 8.6825e-11 6.98647e-09) (1.11877e-11 2.82417e-12 6.68194e-09) (-1.52784e-11 -7.24849e-12 6.50381e-09) (-1.27537e-11 -1.33088e-12 6.33875e-09) (-2.39369e-11 -2.24826e-11 6.35301e-09) (2.03528e-11 1.12256e-11 6.45911e-09)
2100          (-3.76548e-11 -6.94519e-11 -4.75446e-11) (-7.48731e-11 3.72919e-11 6.66526e-10) (-4.21333e-11 -9.96101e-14 1.36193e-09) (1.18048e-11 1.24458e-10 2.7373e-09) (1.31663e-10 -4.03379e-11 4.12821e-09) (4.74419e-11 1.86207e-13 6.83208e-09) (8.49688e-13 -1.2532e-11 6.4308e-09) (-1.42073e-11 2.1518e-12 6.27136e-09) (-1.47116e-11 -7.05032e-12 6.14594e-09) (7.6307e-12 5.5712e-12 6.14415e-09) (2.96813e-11 1.5808e-11 6.31742e-09)
2150          (-3.76245e-11 -5.35954e-13 -1.2239e-10) (-5.33988e-11 1.72341e-10 5.24752e-10) (1.23599e-10 -1.13335e-10 9.89981e-10) (1.20755e-11 -8.29464e-11 2.07148e-09) (-4.41962e-11 -8.00367e-11 3.09967e-09) (-1.26558e-10 -8.93414e-11 5.59324e-09) (2.11869e-11 -6.1465e-13 5.33098e-09) (-5.71526e-12 6.04026e-12 5.1957e-09) (-7.51589e-12 1.41315e-11 5.03227e-09) (-8.64029e-12 -3.02357e-11 5.04189e-09) (7.13185e-12 -1.61041e-12 5.13464e-09)
2200          (-1.33222e-11 7.87991e-11 1.60499e-11) (3.95929e-11 -1.28695e-10 7.87634e-10) (9.03868e-11 -9.65771e-12 1.43656e-09) (3.62172e-11 2.18999e-11 2.50364e-09) (-8.39539e-11 -4.27594e-11 3.38623e-09) (-1.27552e-10 4.4981e-12 6.44502e-09) (-3.0155e-11 -1.61043e-11 5.94472e-09) (-4.3124e-11 1.42147e-11 5.7624e-09) (-1.86499e-12 1.94786e-12 5.62333e-09) (5.69283e-12 -6.16097e-12 5.58158e-09) (-7.79867e-12 -2.90355e-12 5.75857e-09)
2250          (-9.36543e-11 -1.1993e-10 4.75722e-11) (7.7043e-11 -9.13984e-11 7.97041e-10) (4.1885e-11 3.02658e-12 1.43929e-09) (4.07456e-11 -2.03224e-10 3.28592e-09) (7.56109e-11 2.05716e-12 4.46772e-09) (-3.53684e-11 9.14432e-11 7.17561e-09) (2.05666e-11 1.49765e-11 6.6961e-09) (1.6988e-11 1.28377e-11 6.57474e-09) (7.99121e-12 -7.00575e-13 6.44472e-09) (-2.17743e-11 -8.24498e-12 6.50203e-09) (6.36316e-13 2.17617e-11 6.51954e-09)
2300          (3.23144e-11 -7.42165e-11 -7.6098e-11) (-3.86014e-11 -3.44234e-11 8.84104e-10) (-1.19302e-10 -1.64822e-10 1.82106e-09) (1.1123e-11 3.94755e-11 2.76183e-09) (4.88248e-11 3.51545e-11 3.58796e-09) (-1.0456e-10 -3.27369e-11 6.13577e-09) (1.40526e-12 2.96914e-11 5.82695e-09) (1.42228e-11 -2.64173e-12 5.59401e-09) (1.2965e-11 -7.15597e-12 5.44519e-09) (-1.1768e-11 1.37587e-11 5.52169e-09) (-6.48435e-12 5.46291e-13 5.65616e-09)
2350          (3.72367e-11 4.91209e-11 -3.17776e-12) (1.30587e-10 4.2204e-11 5.43497e-10) (-1.13173e-11 -1.65341e-12 1.54497e-09) (4.16361e-12 4.37461e-11 2.71665e-09) (-2.29309e-11 -6.73015e-11 3.77959e-09) (-6.5166e-12 -3.79014e-12 6.41731e-09) (2.22573e-11 -2.14404e-12 6.06035e-09) (8.28787e-12 -2.89033e-11 5.82612e-09) (1.54097e-11 -5.98058e-12 5.65564e-09) (2.85791e-11 1.34938e-11 5.79806e-09) (-4.53266e-12 1.4027e-11 5.89159e-09)
2400          (1.53872e-10 1.17591e-10 -6.79478e-11) (3.86975e-11 -4.26861e-11 6.17216e-10) (-6.2304e-11 -1.30788e-10 1.61063e-09) (-2.31279e-12 7.81981e-11 2.77022e-09) (5.01747e-11 -1.92836e-10 3.62793e-09) (-3.02857e-11 1.26841e-10 7.08491e-09) (9.15604e-13 -1.28384e-11 6.60942e-09) (-4.08907e-14 1.48172e-11 6.39998e-09) (2.10506e-11 -2.24557e-11 6.25866e-09) (-1.41164e-11 2.11257e-11 6.18666e-09) (-1.54611e-11 2.20704e-12 6.29029e-09)
2450          (1.15561e-10 -5.83609e-12 -4.51906e-11) (4.53795e-11 3.51492e-12 8.63519e-10) (1.81368e-12 4.35054e-11 1.44226e-09) (4.06438e-11 -1.27577e-10 2.32137e-09) (-2.06294e-11 4.10156e-11 2.65292e-09) (1.23668e-10 -2.84631e-11 5.39543e-09) (-4.9154e-12 1.2603e-11 4.82741e-09) (-7.1152e-12 1.22244e-11 4.66365e-09) (1.01063e-11 -1.23126e-12 4.45893e-09) (9.2979e-12 -4.43642e-13 4.5122e-09) (-3.95361e-13 7.12565e-12 4.65263e-09)
2500          (-8.61854e-11 -1.07728e-10 4.39752e-11) (8.54672e-12 -5.58133e-11 8.55211e-10) (3.71603e-12 -6.26256e-11 1.64141e-09) (3.89373e-11 7.99759e-11 2.55472e-09) (-2.08156e-11 -1.29339e-10 3.23742e-09) (-4.57931e-11 7.88506e-11 5.52234e-09) (1.35983e-11 -1.50622e-11 5.30693e-09) (1.31882e-12 -1.27171e-11 5.09547e-09) (-5.49018e-12 1.31454e-11 4.94715e-09) (1.33138e-11 -3.34172e-12 4.95593e-09) (7.19491e-12 2.85472e-12 5.09811e-09)
2550          (4.52766e-11 2.38512e-12 -2.38726e-11) (-8.21798e-11 3.89858e-11 4.7388e-10) (3.28562e-11 -6.69636e-12 1.49866e-09) (-7.45109e-12 -1.33421e-10 2.41255e-09) (-1.35764e-10 -7.75304e-11 3.54991e-09) (-1.33761e-10 -1.38013e-10 6.04821e-09) (-2.17694e-11 -8.43302e-12 5.63215e-09) (7.12778e-12 2.29759e-11 5.42765e-09) (-2.08312e-12 -1.20838e-11 5.32931e-09) (7.51952e-13 -2.07683e-12 5.35068e-09) (-1.34623e-11 -1.49515e-13 5.45173e-09)
2600          (-1.97947e-12 -5.96886e-12 5.49297e-11) (-3.61009e-11 -5.06801e-11 5.80899e-10) (-9.37883e-11 -1.51222e-10 1.45101e-09) (9.66466e-11 -8.69236e-11 2.49675e-09) (8.91727e-11 -5.15166e-11 3.57885e-09) (-4.04343e-11 1.86608e-11 6.42873e-09) (5.87095e-12 3.20471e-12 5.87639e-09) (2.04309e-11 2.13843e-11 5.64335e-09) (2.32184e-11 1.69761e-11 5.52988e-09) (7.75954e-12 -7.90497e-12 5.50178e-09) (-7.73228e-12 -1.09044e-12 5.64328e-09)
2650          (2.33174e-11 -1.57828e-10 3.28138e-12) (3.93199e-11 5.96541e-12 2.29097e-10) (1.39666e-11 -4.29889e-11 1.48611e-09) (-1.1933e-10 -1.22552e-10 2.34811e-09) (-1.39062e-11 -8.41813e-11 3.20612e-09) (-4.15539e-11 9.03933e-11 5.7822e-09) (4.94865e-12 -6.58419e-12 5.50175e-09) (-1.32487e-11 -8.45817e-12 5.26602e-09) (-2.25566e-11 -6.41846e-12 5.14431e-09) (5.14688e-13 -5.69825e-12 5.14283e-09) (-1.56548e-11 -1.26842e-12 5.23933e-09)
2700          (-8.9411e-11 1.05625e-12 -8.25699e-12) (1.05665e-11 8.61783e-11 1.0594e-09) (-1.68369e-12 -4.89428e-11 1.90984e-09) (9.38389e-11 2.92423e-11 2.64684e-09) (1.30465e-10 5.93452e-11 3.91492e-09) (9.51173e-11 1.21021e-10 6.95773e-09) (2.19355e-11 1.40547e-12 6.40319e-09) (1.59657e-11 1.12299e-13 6.55104e-09) (3.01001e-11 1.48475e-11 6.72321e-09) (2.184e-11 -9.17395e-12 6.94485e-09) (1.38497e-12 1.23317e-13 7.07681e-09)
2750          (7.35098e-11 -4.08254e-11 2.85634e-11) (-3.22272e-11 -1.65685e-10 3.9553e-10) (-9.81471e-12 2.83183e-11 1.56332e-09) (4.16353e-11 -8.61622e-11 2.63354e-09) (1.01675e-11 -1.19275e-10 3.75484e-09) (-5.26893e-11 1.34371e-11 6.59141e-09) (8.47748e-12 -1.25644e-11 6.10997e-09) (8.39437e-12 7.68311e-12 6.25397e-09) (1.27932e-11 -1.34664e-11 6.3698e-09) (6.92109e-12 5.71857e-12 6.55409e-09) (7.92511e-12 -1.46764e-11 6.63346e-09)
2800          (-6.35299e-12 3.94954e-11 -2.93435e-11) (2.74913e-12 -8.08748e-11 3.84198e-10) (4.64385e-12 -1.19269e-10 1.48985e-09) (-6.49704e-11 4.00142e-11 2.48641e-09) (7.55376e-11 -4.22691e-11 3.59153e-09) (3.33064e-11 4.53811e-11 5.99291e-09) (-1.40714e-11 -1.40125e-11 5.70616e-09) (8.49786e-12 -6.49038e-12 5.80158e-09) (-8.80396e-12 -8.18569e-12 5.9707e-09) (-7.77129e-12 6.41825e-12 6.21184e-09) (1.23086e-11 5.19473e-11 6.29966e-09)
2850          (4.54153e-11 -1.29527e-11 -3.88788e-11) (-7.36937e-11 -7.69545e-11 5.07741e-10) (1.27743e-10 5.09409e-11 1.59312e-09) (8.82223e-12 -1.76681e-10 2.72961e-09) (3.72824e-12 5.44966e-11 3.55189e-09) (7.44478e-11 -1.25865e-10 5.87205e-09) (6.30276e-12 1.48751e-11 5.5188e-09) (-6.30854e-12 -2.90377e-12 5.74956e-09) (3.45433e-12 1.27232e-11 5.86798e-09) (-6.82926e-12 -6.95576e-12 6.00612e-09) (2.14638e-11 -5.51707e-12 6.08456e-09)
2900          (-3.42235e-11 -1.15413e-10 5.17662e-11) (-1.10466e-10 -3.05346e-11 7.14195e-10) (7.63312e-11 -1.37151e-12 1.63783e-09) (-1.99929e-10 8.69853e-12 2.73551e-09) (-1.1928e-10 1.30895e-10 3.41893e-09) (8.11119e-11 -7.99717e-11 5.80649e-09) (-1.18701e-11 8.30823e-13 5.52151e-09) (7.02162e-12 5.68804e-12 5.65978e-09) (-1.25174e-11 5.5781e-12 5.78547e-09) (-1.29163e-11 -6.57868e-12 5.93308e-09) (-8.14649e-13 1.54495e-11 6.00635e-09)
2950          (3.32719e-11 3.94445e-11 8.5046e-11) (-5.09251e-11 -6.20404e-11 5.86346e-10) (1.94986e-10 1.16948e-10 1.2641e-09) (2.48419e-11 1.552e-10 2.52681e-09) (6.78971e-11 8.59561e-11 3.63004e-09) (-7.28266e-12 -8.65045e-11 6.35422e-09) (2.10362e-11 1.57649e-11 5.85079e-09) (-5.5728e-12 -1.05442e-11 5.66003e-09) (-5.70888e-13 9.61961e-12 5.48922e-09) (3.58931e-11 2.38683e-11 5.51058e-09) (-1.28966e-13 6.5457e-12 5.55117e-09)
3000          (5.64019e-12 -9.32052e-11 4.29924e-11) (1.07478e-11 -2.30808e-12 8.81033e-10) (-9.20382e-12 -5.29543e-11 1.97043e-09) (4.48115e-11 2.01135e-12 3.15864e-09) (-4.44386e-11 -5.50322e-11 4.00477e-09) (-4.40487e-11 -4.06466e-11 7.26552e-09) (-1.49341e-11 -1.58782e-12 6.56255e-09) (-2.1032e-11 2.87632e-11 6.35785e-09) (1.56934e-12 -1.49318e-11 6.23176e-09) (1.97633e-12 1.32952e-11 6.26976e-09) (-6.80779e-12 -1.39666e-11 6.40568e-09)
3050          (-5.61304e-11 -1.16838e-10 -3.86589e-11) (3.41617e-11 -8.28848e-11 8.68673e-10) (9.41121e-11 -4.93849e-11 1.56223e-09) (8.20875e-11 -4.49578e-11 2.6599e-09) (-1.42736e-10 3.72899e-11 3.84547e-09) (-2.96665e-11 -2.85448e-11 6.29222e-09) (6.77883e-14 -1.76489e-12 5.84837e-09) (-2.33194e-11 -1.79165e-13 5.64888e-09) (2.54344e-13 -3.85391e-11 5.49706e-09) (-1.39456e-11 1.46574e-12 5.52991e-09) (6.1015e-12 2.19776e-11 5.66359e-09)
3100          (-3.11507e-11 1.13557e-11 8.75394e-11) (6.90658e-12 9.16622e-11 1.11812e-09) (3.92004e-11 -4.28956e-11 2.21205e-09) (-1.17582e-10 -4.19714e-11 2.87761e-09) (-5.53857e-12 3.42539e-11 4.05837e-09) (-9.6852e-11 3.51403e-11 7.43085e-09) (8.38239e-12 -1.14575e-11 6.96027e-09) (8.39685e-12 -5.42724e-12 6.79912e-09) (4.65573e-13 6.15897e-12 6.57262e-09) (2.2396e-11 -2.08954e-11 6.53933e-09) (1.60511e-11 1.22387e-11 6.77958e-09)
3150          (-4.26049e-11 7.6377e-11 -1.14177e-12) (-5.43226e-11 7.34811e-11 9.8064e-10) (1.20421e-10 -1.96232e-12 1.66765e-09) (3.51052e-11 3.47882e-11 2.74365e-09) (1.66135e-11 -1.33593e-10 3.4909e-09) (7.9408e-11 7.375e-12 6.23134e-09) (3.5738e-11 2.22839e-12 5.81471e-09) (6.33567e-12 2.00598e-11 5.62056e-09) (1.5535e-11 -6.16401e-12 5.42194e-09) (5.58169e-12 7.99067e-12 5.38092e-09) (4.06469e-12 2.62061e-11 5.50996e-09)
3200          (5.94634e-11 -4.4131e-11 8.00654e-11) (7.77732e-11 5.7492e-12 5.87829e-10) (1.21252e-10 -1.36462e-10 1.36852e-09) (7.07569e-12 -1.16456e-11 2.58952e-09) (7.98271e-11 4.31376e-11 4.05799e-09) (-9.16284e-11 -5.38877e-11 7.20925e-09) (-3.99791e-11 -7.052e-12 6.80621e-09) (-5.25063e-13 -8.39511e-12 6.50457e-09) (-8.26088e-12 5.09357e-12 6.38883e-09) (-1.45758e-11 -7.00747e-13 6.37739e-09) (-2.32917e-11 6.36974e-12 6.48587e-09)
3250          (-6.9229e-11 3.89089e-11 1.30793e-10) (-4.15659e-11 -1.3076e-10 5.02203e-10) (3.34958e-11 -3.58633e-11 1.62894e-09) (-8.08795e-11 -1.00305e-11 2.40591e-09) (7.59521e-11 -3.87223e-11 3.50579e-09) (3.27834e-11 1.73703e-10 6.28994e-09) (-7.29965e-12 7.87749e-12 6.01062e-09) (4.85829e-13 -1.97705e-12 5.78786e-09) (-3.07118e-11 -6.51373e-12 5.66394e-09) (-3.517e-11 2.93786e-11 5.63161e-09) (6.7479e-12 -1.07674e-12 5.77814e-09)
3300          (2.78474e-12 -1.00002e-10 4.08505e-13) (-1.24873e-10 -3.77896e-11 9.53674e-10) (1.02841e-10 -3.33593e-12 2.11928e-09) (5.07821e-11 2.97862e-11 3.16388e-09) (8.87746e-11 6.09525e-12 4.21007e-09) (7.91285e-12 1.18769e-10 6.86235e-09) (1.41782e-11 -1.40168e-11 6.4051e-09) (-2.83581e-11 -7.73982e-12 6.21744e-09) (-1.59088e-11 -4.39975e-12 6.04627e-09) (-1.71404e-13 1.44643e-11 6.03698e-09) (1.35372e-11 3.52991e-11 6.13886e-09)