# Probe 0 (0.0015 0.0015 0)
# Probe 1 (0.0015 0.0015 0.01)
# Probe 2 (0.0015 0.0015 0.02)
# Probe 3 (0.0015 0.0015 0.03)
# Probe 4 (0.0015 0.0015 0.04)
# Probe 5 (0.0015 0.0015 0.05)
# Probe 6 (0.0015 0.0015 0.06)
# Probe 7 (0.0015 0.0015 0.07)
# Probe 8 (0.0015 0.0015 0.08)
# Probe 9 (0.0015 0.0015 0.09)
# Probe 10 (0.0015 0.0015 0.1)
# Time        0             1             2             3             4             5             6             7             8             9             10           
50            180845        149401        103011        79837.7       70894.6       68266.7       67708.3       67780.3       67764.7       66841.3       45643.5      
100           194216        170751        129473        99615.9       82116.5       73889.8       67943         67771.4       67605.2       64491.2       37692.1      
150           200249        180865        145083        115740        94767.8       82056.6       68921.2       67784.3       67203.4       61769.8       33460.4      
200           203889        187054        155297        127732        105965        90635.9       70795.6       67876.5       66578.6       59167.7       30812.6      
250           206387        191330        162564        136766        115175        98522.1       73440.7       68111.6       65809         56823.6       28983.7      
300           208223        194484        168010        143750        122670        105443        76603.5       68533.3       64980         54751.9       27634.2      
350           209632        196911        172245        149295        128832        111447        80031.9       69156.2       64162.7       52930.6       26590.6      
400           210749        198837        175634        153803        133973        116661        83532.6       69968.8       63408.4       51330.6       25755        
450           211658        200407        178414        157547        138329        121212        86974.7       70943.2       62750.1       49925.6       25068.2      
500           212413        201715        180742        160713        142069        125208        90279.8       72044         62205.7       48693.3       24492.8      
550           213054        202824        182726        163430        145319        128739        93405.9       73235.5       61781.9       47615         24003.4      
600           213605        203779        184439        165792        148169        131877        96334.6       74485.2       61477.5       46675.3       23583        
650           214084        204610        185934        167863        150689        134686        99062         75765.4       61285.9       45861         23219.1      
700           214505        205340        187250        169694        152930        137202        101595        77054.5       61197.9       45160.4       22902.8      
750           214878        205988        188421        171328        154937        139468        103940        78335.9       61202.8       44563.2       22627.4      
800           215211        206566        189467        172791        156742        141517        106111        79597.2       61289.3       44059.8       22387.5      
850           215510        207085        190406        174107        158371        143374        108120        80829.8       61446.6       43641.6       22179.2      
900           215779        207552        191253        175296        159847        145065        109979        82026.7       61664.3       43300.8       21998.9      
950           216022        207974        192019        176375        161189        146607        111702        83184.6       61932.9       43029.8       21843.9      
1000          216243        208358        192716        177356        162412        148017        113300        84301.3       62244.1       42821.8       21711.6      
1050          216444        208707        193351        178251        163530        149310        114783        85375.6       62590.3       42670.5       21600.1      
1100          216627        209025        193930        179070        164555        150497        116162        86407.5       62964.9       42570.2       21507.3      
1150          216795        209317        194461        179820        165496        151593        117447        87398.1       63362.7       42515.4       21431.6      
1200          216949        209585        194950        180511        166364        152603        118645        88346.8       63777.6       42501         21371.4      
1250          217091        209832        195399        181148        167165        153537        119763        89256.2       64206.3       42522.7       21325.3      
1300          217222        210059        195814        181736        167906        154405        120810        90127.4       64644.8       42576.2       21291.9      
1350          217343        210270        196198        182281        168593        155210        121791        90961.9       65089.9       42657.7       21270        
1400          217455        210464        196553        182786        169231        155959        122711        91761.6       65539.3       42763.7       21258.5      
1450          217559        210646        196883        183255        169825        156659        123576        92528         65990.4       42891.1       21256.3      
1500          217656        210814        197192        183694        170381        157313        124391        93262.7       66441.3       43036.9       21262.5      
1550          217746        210970        197478        184103        170899        157925        125159        93967.6       66890.7       43198.7       21276.1      
1600          217830        211117        197746        184485        171385        158500        125885        94644.1       67337.1       43373.9       21296.4      
1650          217909        211254        197996        184842        171839        159038        126571        95293.3       67779.1       43560.4       21322.4      
1700          217983        211383        198232        185179        172267        159547        127220        95916.9       68216         43756.3       21353.5      
1750          218052        211505        198455        185496        172672        160027        127836        96516.1       68646.9       43959.9       21389        
1800          218118        211619        198664        185795        173053        160480        128422        97092.4       69071.3       44169.6       21428.4      
1850          218179        211726        198860        186075        173412        160908        128978        97646.8       69488.6       44384.1       21471        
1900          218236        211826        199042        186337        173747        161309        129508        98180.4       69898.3       44602.1       21516.4      
1950          218290        211921        199217        186586        174066        161690        130012        98694.2       70300.1       44822.4       21564.1      
2000          218340        212009        199377        186817        174362        162049        130492        99188.9       70693.7       45044         21613.7      
2050          218389        212093        199533        187041        174650        162394        130951        99665.6       71078.9       45266.2       21664.8      
2100          218435        212175        199683        187255        174925        162724        131390        100125        71455.6       45488.2       21717.1      
2150          218480        212252        199825        187460        175188        163039        131810        100568        71823.6       45709.2       21770.2      
2200          218523        212327        199962        187657        175440        163341        132213        100996        72182.9       45928.7       21823.9      
2250          218564        212398        200093        187844        175681        163630        132600        101409        72533.5       46146.2       21878        
2300          218603        212466        200218        188024        175912        163907        132971        101808        72875.2       46361.1       21932.2      
2350          218640        212532        200338        188197        176133        164173        133328        102193        73208.3       46573.2       21986.3      
2400          218676        212594        200453        188362        176345        164428        133671        102565        73532.8       46782         22040.2      
2450          218711        212654        200563        188520        176548        164672        134001        102924        73848.6       46987.4       22093.7      
2500          218744        212712        200669        188672        176744        164908        134319        103272        74156.2       47189.1       22146.7      
2550          218775        212767        200771        188819        176932        165134        134625        103608        74455.2       47386.8       22199        
2600          218806        212820        200868        188959        177113        165351        134920        103934        74746.2       47580.7       22250.7      
2650          218834        212870        200960        189091        177283        165558        135204        104248        75029         47770.3       22301.5      
2700          218862        212919        201050        189221        177451        165759        135478        104553        75303.9       47955.6       22351.5      
2750          218888        212964        201133        189340        177605        165947        135742        104847        75571         48136.6       22400.6      
2800          218914        213008        201214        189458        177758        166134        135996        105132        75830.1       48313.1       22448.6      
2850          218938        213051        201294        189573        177907        166314        136242        105407        76082.1       48485.6       22495.8      
2900          218961        213091        201367        189679        178043        166479        136479        105674        76326.7       48653.5       22541.8      
2950          218984        213131        201441        189786        178183        166648        136707        105932        76563.9       48817         22586.8      
3000          219007        213171        201514        189891        178318        166811        136928        106181        76794.1       48976.3       22630.8      
3050          219028        213207        201581        189987        178442        166961        137141        106422        77017.4       49131.1       22673.6      
3100          219049        213244        201649        190085        178568        167114        137348        106656        77233.7       49281.6       22715.4      
3150          219069        213280        201715        190180        178691        167262        137548        106882        77443.8       49428         22756.1      
3200          219088        213313        201775        190267        178803        167397        137741        107101        77647.2       49570.2       22795.7      
3250          219107        213346        201837        190356        178917        167536        137927        107312        77844.4       49708.2       22834.2      
3300          219126        213379        201896        190442        179028        167670        138108        107517        78035.6       49842.3       22871.7      
3350          219142        213407        201949        190519        179128        167792        138283        107716        78220.8       49972.3       22908.1      
3400          219158        213435        202000        190592        179224        167908        138452        107908        78400.4       50098.6       22943.5      
3450          219175        213463        202053        190669        179323        168029        138614        108094        78574.3       50221         22977.8      
3500          219190        213490        202102        190739        179414        168139        138772        108274        78742.9       50339.7       23011.2      
3550          219205        213517        202152        190812        179508        168253        138924        108447        78906         50454.8       23043.5      
3600          219220        213542        202198        190878        179593        168356        139072        108616        79064         50566.4       23074.9      
3650          219234        213567        202243        190943        179678        168459        139214        108779        79217         50674.5       23105.3      
3700          219247        213590        202286        191005        179758        168558        139352        108937        79365.2       50779.2       23134.9      
3750          219260        213613        202328        191066        179837        168653        139485        109089        79508.6       50880.7       23163.5      
3800          219273        213635        202369        191125        179914        168746        139614        109237        79647.4       50979         23191.2      
3850          219285        213656        202407        191180        179985        168832        139739        109379        79781.8       51074.2       23218.1      
3900          219297        213677        202446        191237        180059        168923        139859        109517        79911.7       51166.2       23244.1      
3950          219308        213696        202482        191288        180125        169004        139976        109651        80037.6       51255.5       23269.3      
4000          219319        213715        202517        191339        180191        169083        140088        109780        80159.3       51341.8       23293.7      
4050          219329        213734        202551        191388        180255        169162        140197        109905        80277.3       51425.6       23317.4      
4100          219338        213749        202579        191430        180310        169230        140302        110026        80391.2       51506.4       23340.2      
4150          219348        213766        202611        191476        180371        169306        140403        110143        80501.4       51584.6       23362.4      
4200          219356        213780        202637        191514        180421        169367        140500        110256        80608.4       51660.6       23383.9      
4250          219365        213796        202667        191558        180478        169437        140594        110365        80711.4       51733.7       23404.5      
4300          219374        213811        202695        191599        180531        169502        140685        110470        80811.4       51804.8       23424.7      
4350          219383        213827        202724        191640        180584        169565        140773        110572        80907.9       51873.5       23444.1      
4400          219391        213841        202750        191677        180632        169624        140859        110671        81001.1       51939.8       23462.9      
4450          219399        213855        202776        191715        180681        169684        140942        110766        81091.4       52004         23481.1      
4500          219406        213868        202799        191749        180726        169739        141022        110858        81178.7       52066.1       23498.7      
4550          219414        213881        202823        191784        180771        169795        141099        110947        81263         52126.1       23515.7      
4600          219420        213893        202845        191816        180813        169845        141174        111034        81344.9       52184.4       23532.2      
4650          219427        213904        202867        191847        180854        169896        141246        111118        81424         52240.7       23548.2      
4700          219434        213917        202890        191881        180898        169949        141315        111198        81500         52294.8       23563.5      
4750          219441        213929        202912        191913        180939        170000        141383        111276        81573.6       52347.1       23578.3      
4800          219447        213939        202931        191941        180975        170043        141449        111352        81645.6       52398.4       23592.9      
4850          219453        213949        202950        191968        181010        170087        141513        111425        81714.9       52447.7       23606.8      
4900          219459        213960        202969        191995        181046        170130        141574        111496        81782         52495.3       23620.3      
4950          219465        213970        202988        192022        181082        170173        141633        111564        81846.7       52541.3       23633.4      
5000          219471        213980        203007        192050        181117        170215        141691        111631        81909.3       52585.8       23646        
5050          219476        213990        203025        192076        181151        170257        141747        111695        81969.7       52628.8       23658.2      
5100          219481        213998        203040        192097        181178        170291        141799        111754        82026.4       52669.3       23669.7      
5150          219485        214006        203054        192118        181206        170325        141850        111814        82083.1       52709.9       23681.3      
5200          219490        214013        203068        192138        181233        170359        141898        111871        82136.5       52747.9       23692.1      
5250          219494        214021        203082        192159        181260        170392        141945        111925        82187.9       52784.6       23702.5      
5300          219499        214029        203097        192181        181288        170426        141991        111979        82239.2       52821.2       23712.9      
5350          219503        214037        203112        192202        181315        170458        142036        112029        82287.3       52855.5       23722.7      
5400          219508        214045        203126        192223        181342        170491        142078        112078        82333.7       52888.6       23732.1      
5450          219512        214053        203141        192244        181369        170523        142121        112127        82379.9       52921.6       23741.4      
5500          219517        214060        203155        192264        181395        170553        142162        112173        82423.2       52952.4       23750.2      
5550          219521        214068        203168        192284        181420        170583        142202        112218        82465.6       52982.6       23758.8      
5600          219524        214073        203178        192297        181437        170605        142239        112261        82505.9       53011.4       23767        
5650          219527        214078        203187        192310        181455        170628        142275        112302        82545         53039.3       23774.9      
5700          219530        214083        203197        192325        181474        170652        142309        112342        82582.9       53066.2       23782.6      
5750          219533        214089        203207        192340        181494        170676        142342        112381        82619.5       53092.3       23790        
5800          219536        214094        203217        192355        181513        170700        142374        112418        82655         53117.5       23797.1      
5850          219539        214100        203228        192370        181533        170723        142406        112455        82689.3       53141.9       23804.1      
5900          219542        214105        203238        192385        181552        170746        142437        112490        82722.4       53165.4       23810.7      
5950          219546        214111        203248        192400        181571        170769        142467        112524        82754.4       53188.2       23817.2      
6000          219549        214117        203259        192415        181590        170791        142496        112556        82785.3       53210.2       23823.4      
6050          219552        214122        203269        192429        181609        170813        142524        112588        82815.2       53231.4       23829.5      
6100          219555        214127        203277        192441        181624        170832        142551        112619        82843.7       53251.8       23835.3      
6150          219557        214131        203285        192453        181639        170850        142577        112648        82871.3       53271.4       23840.8      
6200          219560        214136        203293        192464        181654        170868        142602        112676        82897.9       53290.3       23846.2      
6250          219562        214140        203302        192476        181669        170886        142626        112704        82923.8       53308.7       23851.4      
6300          219565        214144        203310        192488        181684        170904        142649        112730        82948.8       53326.4       23856.5      
6350          219567        214149        203318        192499        181699        170922        142672        112756        82972.9       53343.5       23861.3      
6400          219569        214152        203324        192508        181709        170935        142693        112779        82994.8       53359.1       23865.8      
6450          219571        214156        203330        192517        181721        170950        142714        112804        83017.6       53375.3       23870.4      
6500          219573        214159        203336        192526        181734        170965        142735        112827        83039.7       53390.9       23874.8      
6550          219575        214162        203343        192535        181745        170979        142753        112849        83059.9       53405.2       23878.8      
6600          219577        214166        203349        192545        181758        170993        142773        112871        83080.6       53419.9       23883        
6650          219579        214169        203356        192554        181769        171007        142791        112892        83100.2       53433.8       23886.9      
6700          219581        214172        203361        192561        181779        171019        142809        112911        83118.6       53446.9       23890.6      
6750          219583        214175        203366        192569        181789        171031        142825        112930        83136.4       53459.5       23894.2      
6800          219584        214178        203372        192578        181800        171044        142843        112950        83154.9       53472.6       23897.9      
6850          219586        214182        203378        192586        181810        171056        142858        112968        83171.5       53484.4       23901.3      
6900          219588        214184        203383        192593        181819        171067        142874        112985        83187.9       53496         23904.6      
6950          219589        214187        203387        192599        181827        171077        142888        113001        83203         53506.7       23907.6      
7000          219590        214189        203392        192606        181837        171088        142903        113018        83218.9       53518         23910.8      
7050          219592        214192        203397        192613        181845        171099        142916        113034        83233.2       53528.1       23913.7      
7100          219593        214194        203401        192619        181853        171108        142929        113048        83247.2       53538         23916.5      
7150          219594        214196        203405        192625        181860        171117        142942        113063        83260.8       53547.7       23919.2      
7200          219596        214199        203409        192631        181869        171127        142956        113078        83275.2       53557.9       23922.1      
7250          219597        214201        203414        192637        181877        171136        142968        113092        83287.9       53566.8       23924.7      
7300          219598        214203        203417        192643        181884        171145        142979        113104        83299.5       53575.1       23927        
7350          219600        214205        203421        192648        181890        171153        142990        113117        83311.5       53583.6       23929.4      
7400          219601        214207        203425        192653        181897        171161        143002        113130        83323.7       53592.2       23931.9      
7450          219602        214209        203428        192658        181903        171168        143012        113142        83334.6       53600         23934.1      
7500          219603        214211        203431        192663        181909        171176        143022        113153        83345.4       53607.6       23936.2      
7550          219604        214212        203434        192667        181915        171182        143031        113164        83355.2       53614.6       23938.2      
7600          219605        214214        203437        192671        181920        171189        143040        113174        83364.8       53621.4       23940.1      
7650          219606        214215        203440        192675        181926        171195        143049        113184        83374.4       53628.2       23942.1      
7700          219606        214217        203443        192679        181931        171202        143058        113194        83384.1       53635.1       23944        
7750          219607        214218        203445        192683        181936        171208        143066        113204        83392.7       53641.2       23945.8      
7800          219608        214220        203448        192687        181940        171213        143074        113213        83401.2       53647.2       23947.5      
7850          219609        214221        203451        192690        181945        171219        143082        113221        83409.5       53653.1       23949.2      
7900          219610        214222        203453        192694        181950        171225        143090        113230        83418         53659.1       23950.9      
7950          219610        214224        203455        192697        181954        171229        143096        113238        83425.2       53664.3       23952.3      
8000          219611        214225        203457        192700        181958        171234        143103        113246        83432.4       53669.4       23953.8      
8050          219612        214226        203460        192703        181962        171239        143110        113253        83439.6       53674.5       23955.2      
8100          219612        214227        203462        192706        181966        171244        143116        113261        83446.7       53679.6       23956.7      
8150          219613        214228        203464        192710        181970        171249        143123        113269        83453.9       53684.7       23958.1      
8200          219613        214229        203466        192712        181973        171253        143129        113275        83459.8       53688.9       23959.3      
8250          219614        214230        203468        192715        181977        171257        143134        113281        83465.8       53693.2       23960.5      
8300          219615        214231        203469        192717        181980        171261        143140        113288        83471.8       53697.4       23961.7      
8350          219615        214232        203471        192720        181983        171265        143145        113294        83477.7       53701.6       23962.9      
8400          219616        214233        203473        192722        181986        171269        143151        113300        83483.7       53705.9       23964.1      
8450          219616        214234        203474        192725        181989        171272        143155        113305        83488.4       53709.2       23965.1      
8500          219617        214235        203476        192727        181992        171275        143160        113310        83493.2       53712.7       23966.1      
8550          219617        214236        203477        192729        181995        171279        143165        113317        83499.2       53716.9       23967.3      
8600          219618        214236        203479        192731        181998        171283        143170        113322        83503.9       53720.3       23968.3      
8650          219618        214237        203480        192733        182000        171285        143173        113325        83507.5       53722.9       23969        
8700          219618        214238        203481        192735        182002        171288        143177        113330        83512.2       53726.2       23969.9      
8750          219619        214239        203483        192737        182005        171291        143182        113335        83517         53729.6       23970.9      