# Probe 0 (0.0015 0.0015 0)
# Probe 1 (0.0015 0.0015 0.01)
# Probe 2 (0.0015 0.0015 0.02)
# Probe 3 (0.0015 0.0015 0.03)
# Probe 4 (0.0015 0.0015 0.04)
# Probe 5 (0.0015 0.0015 0.05)
# Probe 6 (0.0015 0.0015 0.06)
# Probe 7 (0.0015 0.0015 0.07)
# Probe 8 (0.0015 0.0015 0.08)
# Probe 9 (0.0015 0.0015 0.09)
# Probe 10 (0.0015 0.0015 0.1)
# Time        0             1             2             3             4             5             6             7             8             9             10           
50            (-21.5816 -21.5816 -6.58126e+06) (-19.1333 -19.1333 -5.7776e+06) (-7.03922 -7.03922 -3.40817e+06) (-1.31866 -1.31866 -1.47927e+06) (-0.322466 -0.322466 -509286) (-0.390172 -0.390172 -149085) (-0.69161 -0.691637 15627.5) (0.00224546 0.00226541 1388.76) (-0.42291 -0.422871 -13919.9) (-9.2231 -9.22307 -502655) (-1.94471 -1.94469 -6.47525e+06)
100           (3.43152 3.43152 -4.78377e+06) (3.60878 3.60878 -4.52838e+06) (3.2976 3.2976 -3.59942e+06) (2.27602 2.27602 -2.34834e+06) (1.26502 1.26502 -1.23524e+06) (1.05453 1.05453 -800789) (-3.49025 -3.49025 -131171) (-0.285085 -0.285085 -3552.48) (-2.28536 -2.28536 -78948.5) (-13.8024 -13.8024 -1.01708e+06) (1.7733 1.7733 -5.48025e+06)
150           (-0.707217 -0.707217 -3.92464e+06) (-0.829167 -0.829167 -3.79039e+06) (-1.02341 -1.02341 -3.28984e+06) (-1.12158 -1.12158 -2.52858e+06) (-1.10507 -1.10507 -1.6689e+06) (-1.62394 -1.62394 -1.50138e+06) (2.9976 2.9976 -445504) (0.593191 0.593191 -36520.4) (2.21645 2.21645 -185573) (7.12618 7.12618 -1.35489e+06) (-1.2644 -1.2644 -4.80549e+06)
200           (-0.0925909 -0.0925909 -3.39754e+06) (-0.166364 -0.166364 -3.31164e+06) (-0.268848 -0.268848 -2.98979e+06) (-0.343788 -0.343788 -2.48202e+06) (-0.334965 -0.334965 -1.85453e+06) (0.182302 0.182302 -2.03204e+06) (0.54308 0.54308 -859708) (0.340139 0.340139 -114798) (1.1048 1.1048 -309374) (2.53306 2.53306 -1.56069e+06) (-0.00953906 -0.00953904 -4.31917e+06)
250           (0.301785 0.301785 -3.03298e+06) (0.284668 0.284668 -2.97239e+06) (0.307497 0.307497 -2.74543e+06) (0.289296 0.289296 -2.38262e+06) (0.315705 0.315705 -1.91648e+06) (3.10944 3.10944 -2.368e+06) (-2.05672 -2.05672 -1.29158e+06) (-0.818832 -0.818832 -242204) (-0.640025 -0.640025 -436145) (-0.439534 -0.439534 -1.68314e+06) (1.29348 1.29348 -3.9508e+06)
300           (0.503859 0.503859 -2.76394e+06) (0.527427 0.527427 -2.71875e+06) (0.643651 0.643651 -2.54968e+06) (0.689026 0.689026 -2.27777e+06) (0.766584 0.766584 -1.92079e+06) (5.92772 5.92772 -2.56018e+06) (-3.11994 -3.11994 -1.68786e+06) (-2.51049 -2.51049 -410814) (-2.50896 -2.50896 -561029) (-2.23436 -2.23436 -1.75469e+06) (2.21914 2.21914 -3.66085e+06)
350           (7.15066 7.15066 -2.55684e+06) (8.37998 8.37998 -2.52182e+06) (11.3677 11.3677 -2.39093e+06) (13.0616 13.0616 -2.17952e+06) (13.3873 13.3873 -1.89786e+06) (77.2428 77.2428 -2.66048e+06) (-7.62642 -7.62642 -2.02654e+06) (-25.5668 -25.5668 -607060) (-29.8071 -29.8071 -683580) (-25.5508 -25.5508 -1.79565e+06) (15.4846 15.4846 -3.42579e+06)
400           (5.51003 5.51003 -2.3924e+06) (6.47633 6.47633 -2.36441e+06) (8.88148 8.88148 -2.25987e+06) (10.4161 10.4161 -2.09044e+06) (11.0763 11.0763 -1.86221e+06) (68.7653 68.7653 -2.7047e+06) (1.70949 1.70949 -2.30488e+06) (-23.6281 -23.6281 -816966) (-27.2366 -27.2366 -804495) (-19.8868 -19.8868 -1.81876e+06) (12.8886 12.8886 -3.23084e+06)
450           (4.36013 4.36013 -2.25835e+06) (5.13694 5.13694 -2.23541e+06) (7.10659 7.10659 -2.14974e+06) (8.468 8.468 -2.01053e+06) (9.25954 9.25954 -1.82143e+06) (60.5913 60.5913 -2.71541e+06) (7.88198 7.88198 -2.52881e+06) (-20.5202 -20.5202 -1.02887e+06) (-24.4749 -24.4749 -924190) (-15.787 -15.787 -1.83207e+06) (10.697 10.697 -3.06637e+06)
500           (3.53644 3.53644 -2.14665e+06) (4.17448 4.17448 -2.12745e+06) (5.81577 5.81577 -2.05576e+06) (7.01633 7.01633 -1.93902e+06) (7.83826 7.83826 -1.77946e+06) (53.3166 53.3166 -2.70639e+06) (11.671 11.671 -2.70706e+06) (-17.1712 -17.1712 -1.23436e+06) (-21.9341 -21.9341 -1.04253e+06) (-12.9572 -12.9572 -1.84073e+06) (8.94112 8.94112 -2.92585e+06)
550           (2.93029 2.93029 -2.05189e+06) (3.46425 3.46425 -2.03554e+06) (4.85337 4.85337 -1.97451e+06) (5.91227 5.91227 -1.875e+06) (6.71536 6.71536 -1.73835e+06) (47.0308 47.0308 -2.68599e+06) (13.8358 13.8358 -2.84824e+06) (-13.9458 -13.9458 -1.42806e+06) (-19.6107 -19.6107 -1.15893e+06) (-10.9646 -10.9646 -1.84795e+06) (7.53335 7.53335 -2.80473e+06)
600           (2.47161 2.47161 -1.97031e+06) (2.9255 2.9255 -1.95619e+06) (4.11686 4.11686 -1.90352e+06) (5.0534 5.0534 -1.81756e+06) (5.81487 5.81487 -1.69912e+06) (41.6495 41.6495 -2.65932e+06) (14.9332 14.9332 -2.95987e+06) (-11.0126 -11.0126 -1.60702e+06) (-17.4753 -17.4753 -1.27257e+06) (-9.51204 -9.51204 -1.8557e+06) (6.38626 6.38626 -2.69972e+06)
650           (-1.71064 -1.71064 -1.8993e+06) (-2.08048 -2.08048 -1.88697e+06) (-2.97043 -2.97043 -1.84099e+06) (-3.86867 -3.86867 -1.76588e+06) (-4.13952 -4.13952 -1.66234e+06) (-29.2463 -29.2463 -2.62908e+06) (-21.7625 -21.7625 -3.04832e+06) (10.694 10.694 -1.76998e+06) (20.6746 20.6746 -1.38258e+06) (11.4017 11.4017 -1.86506e+06) (-7.29936 -7.29936 -2.60842e+06)
700           (-0.186011 -0.186011 -1.83693e+06) (-0.199331 -0.199331 -1.82605e+06) (-0.263853 -0.263853 -1.78548e+06) (-0.331324 -0.331324 -1.71921e+06) (-0.270637 -0.270637 -1.62755e+06) (1.19589 1.19589 -2.59797e+06) (-3.60677 -3.60677 -3.11825e+06) (-0.0435016 -0.0435016 -1.91696e+06) (1.61725 1.61725 -1.48826e+06) (1.22787 1.22787 -1.8766e+06) (-0.289857 -0.289857 -2.52897e+06)
750           (-0.164301 -0.164301 -1.78155e+06) (-0.178396 -0.178396 -1.77188e+06) (-0.232515 -0.232515 -1.73586e+06) (-0.272922 -0.272922 -1.67703e+06) (-0.295206 -0.295206 -1.5956e+06) (1.0685 1.0685 -2.56677e+06) (-2.87007 -2.87007 -3.17323e+06) (-0.358528 -0.358528 -2.04856e+06) (0.986105 0.986105 -1.589e+06) (0.881856 0.881856 -1.89048e+06) (-0.221544 -0.221544 -2.45994e+06)
800           (-0.142741 -0.142741 -1.73211e+06) (-0.155217 -0.155217 -1.72348e+06) (-0.20227 -0.20227 -1.69132e+06) (-0.23827 -0.23827 -1.6388e+06) (-0.259409 -0.259409 -1.56607e+06) (1.05663 1.05663 -2.53621e+06) (-2.57618 -2.57618 -3.21638e+06) (-0.468434 -0.468434 -2.16578e+06) (0.732026 0.732026 -1.68441e+06) (0.712703 0.712703 -1.90665e+06) (-0.165455 -0.165455 -2.40014e+06)
850           (0.205237 0.205237 -1.68778e+06) (0.178357 0.178357 -1.68003e+06) (0.192306 0.192306 -1.65116e+06) (0.0819882 0.0819882 -1.60411e+06) (0.463313 0.463313 -1.53879e+06) (4.49026 4.49026 -2.50657e+06) (0.16382 0.16382 -3.25001e+06) (-1.29987 -1.29987 -2.26981e+06) (-1.70775 -1.70775 -1.77425e+06) (-0.645027 -0.645027 -1.92491e+06) (0.618045 0.618045 -2.34863e+06)
900           (-0.843456 -0.843456 -1.64786e+06) (-1.04243 -1.04243 -1.64084e+06) (-1.74997 -1.74997 -1.61487e+06) (-2.08038 -2.08038 -1.57248e+06) (-2.01844 -2.01844 -1.51349e+06) (-16.432 -16.432 -2.47819e+06) (-20.7777 -20.7777 -3.27614e+06) (0.087982 0.087982 -2.36184e+06) (11.4662 11.4662 -1.8584e+06) (7.71204 7.71204 -1.94501e+06) (-3.47193 -3.47193 -2.30457e+06)
950           (-0.714742 -0.714742 -1.61176e+06) (-0.988147 -0.988147 -1.60537e+06) (-1.63634 -1.63634 -1.5819e+06) (-1.85067 -1.85067 -1.54353e+06) (-1.81397 -1.81397 -1.49013e+06) (-14.7122 -14.7122 -2.45116e+06) (-19.6393 -19.6393 -3.29604e+06) (-1.19249 -1.19249 -2.44317e+06) (9.74806 9.74806 -1.93691e+06) (7.0481 7.0481 -1.96663e+06) (-2.87914 -2.87914 -2.26725e+06)
1000          (-0.605823 -0.605823 -1.57899e+06) (-0.932626 -0.932626 -1.57316e+06) (-1.49103 -1.49103 -1.55187e+06) (-1.62155 -1.62155 -1.51701e+06) (-1.62592 -1.62592 -1.46852e+06) (-13.0231 -13.0231 -2.42551e+06) (-18.2356 -18.2356 -3.3109e+06) (-2.19338 -2.19338 -2.51494e+06) (8.02684 8.02684 -2.00991e+06) (6.27914 6.27914 -1.98949e+06) (-2.28623 -2.28623 -2.23603e+06)
1050          (-0.519763 -0.519763 -1.54914e+06) (-0.877347 -0.877347 -1.54381e+06) (-1.3705 -1.3705 -1.52443e+06) (-1.45842 -1.45842 -1.49266e+06) (-1.49398 -1.49398 -1.44849e+06) (-11.7018 -11.7018 -2.40119e+06) (-17.0912 -17.0912 -3.32165e+06) (-2.9877 -2.9877 -2.57821e+06) (6.59729 6.59729 -2.07758e+06) (5.63478 5.63478 -2.01328e+06) (-1.78162 -1.78162 -2.21035e+06)
1100          (-1.51762 -1.51762 -1.52197e+06) (-2.18743 -2.18743 -1.51699e+06) (-3.0465 -3.0465 -1.4994e+06) (-3.06886 -3.06886 -1.4703e+06) (-3.54096 -3.54096 -1.42984e+06) (-30.2312 -30.2312 -2.37811e+06) (-39.9033 -39.9033 -3.32902e+06) (-8.99799 -8.99799 -2.63394e+06) (13.5071 13.5071 -2.14017e+06) (12.7473 12.7473 -2.03776e+06) (-3.40188 -3.40188 -2.1897e+06)
1150          (-0.0269952 -0.0269953 -1.49701e+06) (-0.469972 -0.469972 -1.49248e+06) (-0.610146 -0.610146 -1.4763e+06) (-0.205793 -0.205793 -1.44967e+06) (0.0546192 0.0546192 -1.41269e+06) (2.06851 2.06851 -2.35629e+06) (2.00491 2.00491 -3.33337e+06) (0.687219 0.687219 -2.683e+06) (-0.204897 -0.204897 -2.19798e+06) (-0.365181 -0.365181 -2.06269e+06) (0.0711761 0.0711761 -2.17361e+06)
1200          (-2.86157 -2.86157 -1.47407e+06) (-3.76441 -3.76441 -1.4699e+06) (-5.42398 -5.42398 -1.45505e+06) (-6.02794 -6.02794 -1.43057e+06) (-6.81444 -6.81444 -1.39652e+06) (-58.1603 -58.1603 -2.33562e+06) (-6.88277 -6.88277 -3.33587e+06) (-1.58603 -1.58603 -2.72615e+06) (1.16742 1.16742 -2.25123e+06) (1.26957 1.26957 -2.08783e+06) (-0.0554774 -0.0554774 -2.16161e+06)
1250          (-4.82433 -4.82433 -1.45301e+06) (-6.04818 -6.04818 -1.44913e+06) (-8.40626 -8.40626 -1.43549e+06) (-10.1644 -10.1644 -1.41289e+06) (-11.9671 -11.9671 -1.3815e+06) (-100.438 -100.438 -2.31609e+06) (-93.7191 -93.7191 -3.33631e+06) (-33.3025 -33.3025 -2.7641e+06) (18.3942 18.3942 -2.30028e+06) (25.9345 25.9345 -2.11304e+06) (-2.1086 -2.1086 -2.15334e+06)
1300          (-1.31831 -1.31831 -1.43354e+06) (-1.92954 -1.92954 -1.42996e+06) (-2.64009 -2.64009 -1.41736e+06) (-2.86789 -2.86789 -1.39648e+06) (-3.40582 -3.40582 -1.3675e+06) (-27.7157 -27.7157 -2.29756e+06) (-50.949 -50.949 -3.3352e+06) (-20.3056 -20.3056 -2.79745e+06) (7.40488 7.40489 -2.3454e+06) (13.2449 13.2449 -2.13815e+06) (-0.142714 -0.142715 -2.14842e+06)
1350          (-1.02174 -1.02174 -1.41556e+06) (-1.63363 -1.63363 -1.41223e+06) (-2.23349 -2.23349 -1.40058e+06) (-2.26465 -2.26465 -1.38124e+06) (-2.68538 -2.68538 -1.35436e+06) (-22.8458 -22.8458 -2.27999e+06) (-37.0886 -37.0886 -3.33286e+06) (-15.8674 -15.8674 -2.82675e+06) (3.52652 3.52652 -2.38689e+06) (8.75794 8.75794 -2.16304e+06) (0.627243 0.627243 -2.1465e+06)
1400          (-0.326926 -0.326926 -1.39891e+06) (-0.79742 -0.79742 -1.39581e+06) (-0.995457 -0.995457 -1.385e+06) (-0.524166 -0.524167 -1.36703e+06) (-0.645195 -0.645195 -1.34207e+06) (-5.92753 -5.92753 -2.26334e+06) (-16.8674 -16.8674 -3.32939e+06) (-7.75122 -7.75122 -2.85246e+06) (0.708001 0.708002 -2.42504e+06) (3.51694 3.51694 -2.18762e+06) (0.588319 0.588319 -2.14728e+06)
1450          (-0.262634 -0.262634 -1.38343e+06) (-0.696935 -0.696935 -1.38055e+06) (-0.856861 -0.856861 -1.37049e+06) (-0.41433 -0.41433 -1.35377e+06) (-0.490321 -0.490321 -1.33054e+06) (-4.64854 -4.64854 -2.24755e+06) (-15.215 -15.215 -3.32509e+06) (-7.44414 -7.44414 -2.87499e+06) (0.0158232 0.0158232 -2.46011e+06) (2.91348 2.91348 -2.21179e+06) (0.802813 0.802813 -2.15046e+06)
1500          (-0.220337 -0.220337 -1.369e+06) (-0.615803 -0.615803 -1.36631e+06) (-0.75864 -0.75864 -1.35694e+06) (-0.338513 -0.338513 -1.34136e+06) (-0.381668 -0.381668 -1.3197e+06) (-3.77862 -3.77862 -2.23257e+06) (-13.9706 -13.9706 -3.32011e+06) (-7.22321 -7.22321 -2.89474e+06) (-0.529825 -0.529825 -2.49235e+06) (2.43952 2.43952 -2.23551e+06) (0.980939 0.980939 -2.15576e+06)
1550          (-0.0260657 -0.0260656 -1.35568e+06) (-0.771115 -0.771115 -1.35303e+06) (-0.958176 -0.958176 -1.3444e+06) (-0.263581 -0.263581 -1.32979e+06) (-0.0954357 -0.0954357 -1.30947e+06) (-2.36973 -2.36973 -2.2183e+06) (-2.44177 -2.44177 -3.31443e+06) (-1.63313 -1.63313 -2.91202e+06) (-0.222368 -0.222368 -2.522e+06) (0.477929 0.477929 -2.25872e+06) (0.204726 0.204726 -2.16294e+06)
1600          (0.01119 0.01119 -1.34311e+06) (-0.433734 -0.433733 -1.34065e+06) (-0.656246 -0.656246 -1.33255e+06) (0.295363 0.295363 -1.31886e+06) (-0.0454176 -0.0454176 -1.29986e+06) (2.66589 2.66589 -2.20472e+06) (7.98558 7.98558 -3.30837e+06) (4.48275 4.48275 -2.92711e+06) (1.08645 1.08645 -2.54928e+06) (-0.896051 -0.89605 -2.28139e+06) (-0.800297 -0.800297 -2.17177e+06)
1650          (0.574816 0.574816 -1.33144e+06) (-0.075537 -0.0755372 -1.32906e+06) (-0.000631029 -0.000631073 -1.32151e+06) (1.06957 1.06957 -1.30866e+06) (1.42328 1.42328 -1.29072e+06) (10.3818 10.3818 -2.19168e+06) (18.1972 18.1972 -3.30198e+06) (11.3034 11.3034 -2.94026e+06) (3.198 3.198 -2.5744e+06) (-1.93261 -1.93261 -2.30349e+06) (-2.08449 -2.08449 -2.18203e+06)
1700          (0.554502 0.554502 -1.32041e+06) (-0.0266475 -0.0266475 -1.31817e+06) (0.00732971 0.00732974 -1.31106e+06) (0.970726 0.970726 -1.299e+06) (1.38042 1.38042 -1.28211e+06) (9.92996 9.92996 -2.17932e+06) (17.4385 17.4385 -3.29533e+06) (11.222 11.222 -2.95171e+06) (3.63388 3.63388 -2.59755e+06) (-1.5654 -1.5654 -2.32501e+06) (-2.2459 -2.2459 -2.19353e+06)
1750          (-0.00506462 -0.00506462 -1.30994e+06) (-0.520308 -0.520308 -1.30792e+06) (-0.883701 -0.883701 -1.30114e+06) (-0.659052 -0.659052 -1.28984e+06) (-0.372088 -0.372088 -1.27398e+06) (-3.40117 -3.40117 -2.1676e+06) (-5.37591 -5.37591 -3.28852e+06) (-3.50265 -3.50265 -2.96164e+06) (-0.95793 -0.95793 -2.61889e+06) (0.751855 0.751855 -2.34594e+06) (0.858969 0.858969 -2.2061e+06)
1800          (-0.227333 -0.227333 -1.30017e+06) (-0.462467 -0.462467 -1.29826e+06) (-0.454052 -0.454052 -1.29187e+06) (-0.0277836 -0.0277836 -1.2812e+06) (0.108151 0.108151 -1.26622e+06) (-1.48349 -1.48349 -2.15638e+06) (-2.3724 -2.3724 -3.28154e+06) (-1.62675 -1.62675 -2.97025e+06) (-0.467534 -0.467534 -2.63859e+06) (0.382738 0.382738 -2.36627e+06) (0.470135 0.470135 -2.21958e+06)
1850          (-0.0337042 -0.0337043 -1.291e+06) (-0.220472 -0.220472 -1.28921e+06) (-0.306605 -0.306605 -1.28314e+06) (0.0600401 0.0600401 -1.2731e+06) (0.683862 0.683862 -1.25897e+06) (3.88044 3.88044 -2.14536e+06) (8.69339 8.69339 -3.27441e+06) (5.97208 5.97208 -2.97768e+06) (2.47148 2.47148 -2.6568e+06) (-0.445882 -0.445882 -2.38602e+06) (-1.56883 -1.56883 -2.23381e+06)
1900          (0.28802 0.28802 -1.28252e+06) (0.144461 0.144461 -1.2808e+06) (0.312613 0.312613 -1.27507e+06) (1.14387 1.14387 -1.26548e+06) (1.9716 1.9716 -1.25188e+06) (12.8893 12.8893 -2.13469e+06) (22.1109 22.1109 -3.26706e+06) (15.7004 15.7004 -2.98407e+06) (6.81784 6.81784 -2.67365e+06) (-0.833364 -0.833364 -2.40518e+06) (-3.82457 -3.82457 -2.24868e+06)
1950          (0.619574 0.619574 -1.27435e+06) (0.586289 0.586289 -1.27286e+06) (0.87673 0.87673 -1.2673e+06) (1.37489 1.37489 -1.2581e+06) (1.72154 1.72154 -1.24517e+06) (12.2057 12.2057 -2.1247e+06) (22.3027 22.3027 -3.25969e+06) (16.2875 16.2875 -2.9895e+06) (7.51826 7.51826 -2.68927e+06) (-0.577815 -0.577815 -2.42377e+06) (-4.24689 -4.24689 -2.26404e+06)
2000          (-0.389552 -0.389552 -1.26685e+06) (-0.361019 -0.361019 -1.2654e+06) (-0.392151 -0.392151 -1.26001e+06) (-0.464187 -0.464187 -1.2512e+06) (-0.567991 -0.567991 -1.23885e+06) (-1.94096 -1.94096 -2.11475e+06) (-0.568397 -0.568397 -3.25236e+06) (-0.57117 -0.57117 -2.99411e+06) (-0.368093 -0.368093 -2.70375e+06) (-0.131436 -0.131436 -2.44178e+06) (0.072245 0.0722451 -2.2798e+06)
2050          (0.0723765 0.0723765 -1.25959e+06) (-0.0115786 -0.0115786 -1.25819e+06) (-0.14089 -0.14089 -1.25303e+06) (-0.24966 -0.24966 -1.24459e+06) (-0.311478 -0.311478 -1.23277e+06) (2.13708 2.13708 -2.10559e+06) (6.23634 6.23634 -3.24505e+06) (4.86077 4.86077 -2.998e+06) (2.52351 2.52351 -2.7172e+06) (0.0986876 0.0986876 -2.45924e+06) (-1.26761 -1.26761 -2.29587e+06)
2100          (-0.0503473 -0.0503472 -1.25264e+06) (-0.0663861 -0.0663861 -1.25131e+06) (-0.10825 -0.10825 -1.24636e+06) (-0.140532 -0.140532 -1.23828e+06) (-0.139401 -0.139401 -1.22697e+06) (3.52815 3.52815 -2.09685e+06) (7.58871 7.58871 -3.23785e+06) (5.95968 5.95968 -3.00126e+06) (3.18963 3.18963 -2.72971e+06) (0.212873 0.212874 -2.47616e+06) (-1.55543 -1.55543 -2.31215e+06)
2150          (-0.0702578 -0.0702578 -1.24599e+06) (-0.0727141 -0.0727142 -1.24471e+06) (-0.0928965 -0.0928965 -1.23998e+06) (-0.110901 -0.1109 -1.23225e+06) (-0.11714 -0.11714 -1.22144e+06) (3.32931 3.32931 -2.08851e+06) (7.25274 7.25274 -3.23077e+06) (5.79495 5.79495 -3.00397e+06) (3.20818 3.20818 -2.74137e+06) (0.292785 0.292785 -2.49256e+06) (-1.56607 -1.56607 -2.32856e+06)
2200          (-0.0689451 -0.068945 -1.23962e+06) (-0.0712263 -0.0712263 -1.2384e+06) (-0.0907826 -0.0907826 -1.23387e+06) (-0.108484 -0.108484 -1.22648e+06) (-0.115422 -0.115422 -1.21614e+06) (3.16395 3.16395 -2.08052e+06) (6.92023 6.92023 -3.22383e+06) (5.60683 5.60683 -3.00621e+06) (3.1914 3.1914 -2.75225e+06) (0.359084 0.359084 -2.50843e+06) (-1.55393 -1.55393 -2.34504e+06)
2250          (-0.0672536 -0.0672536 -1.23353e+06) (-0.0696373 -0.0696373 -1.23236e+06) (-0.0889936 -0.0889936 -1.22803e+06) (-0.10659 -0.10659 -1.22095e+06) (-0.113997 -0.113997 -1.21106e+06) (3.00946 3.00946 -2.07283e+06) (6.60903 6.60903 -3.21702e+06) (5.42143 5.42143 -3.00804e+06) (3.16145 3.16145 -2.76242e+06) (0.414176 0.414176 -2.52381e+06) (-1.53231 -1.53231 -2.36153e+06)
2300          (-0.0655619 -0.0655619 -1.2277e+06) (-0.0680447 -0.0680447 -1.22658e+06) (-0.0871977 -0.0871977 -1.22243e+06) (-0.104677 -0.104677 -1.21566e+06) (-0.112489 -0.112489 -1.20619e+06) (2.86513 2.86513 -2.06544e+06) (6.3181 6.3181 -3.21033e+06) (5.24098 5.24098 -3.00952e+06) (3.12208 3.12208 -2.77195e+06) (0.459477 0.459477 -2.5387e+06) (-1.50592 -1.50592 -2.37797e+06)
2350          (-0.0638729 -0.0638728 -1.22212e+06) (-0.0664415 -0.0664415 -1.22104e+06) (-0.085369 -0.085369 -1.21707e+06) (-0.102704 -0.102705 -1.21058e+06) (-0.110856 -0.110856 -1.20151e+06) (2.73044 2.73044 -2.05832e+06) (6.04594 6.04594 -3.20378e+06) (5.06626 5.06626 -3.01069e+06) (3.07542 3.07542 -2.7809e+06) (0.496209 0.496209 -2.55312e+06) (-1.47675 -1.47675 -2.39431e+06)
2400          (-0.0621879 -0.0621878 -1.21677e+06) (-0.0648266 -0.0648265 -1.21574e+06) (-0.0835025 -0.0835024 -1.21193e+06) (-0.100664 -0.100663 -1.20571e+06) (-0.109088 -0.109088 -1.19702e+06) (2.60476 2.60476 -2.05146e+06) (5.79102 5.79102 -3.19736e+06) (4.89755 4.89755 -3.01159e+06) (3.02309 3.02309 -2.78932e+06) (0.525481 0.525481 -2.56708e+06) (-1.44579 -1.44579 -2.41051e+06)
2450          (-0.0605104 -0.0605104 -1.21164e+06) (-0.0632033 -0.0632033 -1.21065e+06) (-0.0816009 -0.0816008 -1.207e+06) (-0.0985566 -0.0985566 -1.20103e+06) (-0.107191 -0.107191 -1.19269e+06) (2.48745 2.48745 -2.04484e+06) (5.55188 5.55188 -3.19108e+06) (4.73488 4.73488 -3.01226e+06) (2.96639 2.96639 -2.79724e+06) (0.548285 0.548285 -2.5806e+06) (-1.41365 -1.41365 -2.42654e+06)
2500          (0.325386 0.325386 -1.2067e+06) (0.305047 0.305047 -1.20576e+06) (0.341426 0.341426 -1.20225e+06) (0.366444 0.366444 -1.19653e+06) (0.387486 0.387486 -1.18854e+06) (6.13974 6.13974 -2.03844e+06) (11.4424 11.4424 -3.18495e+06) (9.77975 9.77975 -3.01272e+06) (6.25177 6.25177 -2.80472e+06) (1.29753 1.29753 -2.5937e+06) (-2.85423 -2.85423 -2.44237e+06)
2550          (0.0700553 0.0700553 -1.20197e+06) (0.0672348 0.0672347 -1.20106e+06) (0.0847222 0.0847222 -1.1977e+06) (0.105757 0.105757 -1.1922e+06) (0.0849294 0.0849295 -1.18451e+06) (3.63189 3.63189 -2.03232e+06) (7.94733 7.94733 -3.17896e+06) (7.0579 7.0579 -3.01301e+06) (4.72542 4.72542 -2.81179e+06) (1.2853 1.2853 -2.60638e+06) (-1.76889 -1.76889 -2.45795e+06)
2600          (0.171645 0.171645 -1.19743e+06) (0.12441 0.12441 -1.19656e+06) (0.0787321 0.0787321 -1.19332e+06) (0.0252657 0.0252657 -1.18805e+06) (0.0341123 0.0341123 -1.18067e+06) (1.79202 1.79202 -2.0263e+06) (5.10255 5.10255 -3.17309e+06) (4.45854 4.45854 -3.01315e+06) (2.95094 2.95094 -2.81849e+06) (0.705413 0.705413 -2.61866e+06) (-1.26172 -1.26172 -2.4733e+06)
2650          (-0.0679426 -0.0679426 -1.19317e+06) (-0.0704395 -0.0704395 -1.19233e+06) (-0.143957 -0.143957 -1.1892e+06) (-0.328253 -0.328253 -1.18408e+06) (0.214329 0.214329 -1.1769e+06) (-0.49153 -0.49153 -2.02042e+06) (1.56248 1.56248 -3.16724e+06) (1.72769 1.72769 -3.01315e+06) (1.43329 1.43329 -2.82485e+06) (0.728368 0.728368 -2.63056e+06) (-0.142137 -0.142137 -2.48837e+06)
2700          (0.0316375 0.0316376 -1.18899e+06) (-0.0666414 -0.0666414 -1.18817e+06) (-0.338824 -0.338824 -1.18516e+06) (-0.660606 -0.660606 -1.18025e+06) (-0.499208 -0.499208 -1.17334e+06) (1.34031 1.34031 -2.01484e+06) (0.979684 0.979684 -3.16161e+06) (1.00721 1.00721 -3.01302e+06) (0.849668 0.849668 -2.83088e+06) (0.481777 0.481777 -2.64208e+06) (-0.0538864 -0.0538864 -2.50315e+06)
2750          (0.00565943 0.00565947 -1.18514e+06) (-0.101079 -0.101079 -1.18435e+06) (-0.273732 -0.273732 -1.18142e+06) (-0.441566 -0.441566 -1.17663e+06) (-0.615006 -0.615006 -1.1699e+06) (-0.65037 -0.65037 -2.00902e+06) (1.54632 1.54632 -3.15603e+06) (1.4283 1.4283 -3.01279e+06) (0.986616 0.986616 -2.83661e+06) (0.334273 0.334273 -2.65323e+06) (-0.229225 -0.229225 -2.51763e+06)
2800          (0.0159723 0.0159724 -1.18137e+06) (0.00674598 0.00674598 -1.18059e+06) (-0.00398117 -0.00398122 -1.17773e+06) (-0.0153862 -0.0153862 -1.17305e+06) (-0.0153388 -0.0153388 -1.16646e+06) (2.33058 2.33058 -2.00393e+06) (5.37692 5.37692 -3.15053e+06) (4.93907 4.93907 -3.01246e+06) (3.49139 3.49139 -2.84207e+06) (1.13026 1.13026 -2.66403e+06) (-1.18166 -1.18166 -2.53179e+06)
2850          (0.330008 0.330008 -1.17768e+06) (0.300508 0.300508 -1.17693e+06) (0.33045 0.33045 -1.17414e+06) (0.356289 0.356289 -1.16957e+06) (0.369035 0.369035 -1.16318e+06) (3.53599 3.53599 -1.9991e+06) (6.68213 6.68213 -3.14516e+06) (5.57257 5.57257 -3.01204e+06) (3.49409 3.49409 -2.84727e+06) (0.373964 0.373964 -2.6745e+06) (-2.35085 -2.35085 -2.54565e+06)
2900          (-0.234696 -0.234696 -1.17429e+06) (-0.262887 -0.262887 -1.17355e+06) (-0.363628 -0.363627 -1.17083e+06) (-0.45933 -0.45933 -1.16639e+06) (-0.54982 -0.54982 -1.16018e+06) (0.463378 0.463378 -1.99366e+06) (0.79933 0.79933 -3.13999e+06) (0.823258 0.823258 -3.01154e+06) (0.647926 0.647926 -2.85223e+06) (0.303655 0.303655 -2.68464e+06) (-0.102066 -0.102066 -2.55919e+06)
2950          (0.0521235 0.0521235 -1.17082e+06) (-0.00965827 -0.00965832 -1.17011e+06) (-0.100039 -0.100039 -1.16747e+06) (-0.209418 -0.209418 -1.16316e+06) (-0.371047 -0.371047 -1.15713e+06) (-0.285357 -0.285357 -1.9892e+06) (0.676789 0.676789 -3.135e+06) (0.821186 0.821186 -3.01101e+06) (0.754097 0.754097 -2.85695e+06) (0.513668 0.513668 -2.69444e+06) (0.111855 0.111855 -2.57239e+06)
3000          (-0.253697 -0.253697 -1.16745e+06) (-0.16522 -0.16522 -1.16676e+06) (-0.0464092 -0.0464092 -1.1642e+06) (0.141656 0.141656 -1.16002e+06) (0.333134 0.333134 -1.15419e+06) (1.51327 1.51327 -1.98494e+06) (0.531751 0.531751 -3.13015e+06) (0.142406 0.142406 -3.01043e+06) (-0.0959573 -0.0959573 -2.86148e+06) (-0.354426 -0.354426 -2.70395e+06) (-0.441962 -0.441962 -2.58527e+06)
3050          (-0.35366 -0.35366 -1.16435e+06) (-0.311221 -0.311221 -1.16368e+06) (-0.287055 -0.287055 -1.1612e+06) (-0.236162 -0.236162 -1.15715e+06) (-0.241631 -0.241631 -1.1515e+06) (0.186082 0.186082 -1.98009e+06) (0.505322 0.505322 -3.12548e+06) (0.553579 0.553579 -3.00984e+06) (0.441646 0.441646 -2.8658e+06) (0.215552 0.215552 -2.71314e+06) (-0.0586839 -0.0586839 -2.59782e+06)
3100          (0.160867 0.160867 -1.16119e+06) (0.0329339 0.0329339 -1.16054e+06) (-0.174193 -0.174193 -1.15814e+06) (-0.366931 -0.366931 -1.15422e+06) (-0.456241 -0.456241 -1.14876e+06) (-0.0187675 -0.0187675 -1.9761e+06) (0.594226 0.594226 -3.12097e+06) (0.7145 0.7145 -3.00923e+06) (0.659445 0.659445 -2.86994e+06) (0.455802 0.455802 -2.72204e+06) (0.119914 0.119914 -2.61004e+06)
3150          (-0.384401 -0.384401 -1.15813e+06) (-0.185256 -0.185256 -1.1575e+06) (0.115103 0.115103 -1.15517e+06) (0.344491 0.344491 -1.15139e+06) (0.334641 0.334641 -1.1461e+06) (0.706674 0.706674 -1.97226e+06) (-0.00663454 -0.00663449 -3.11658e+06) (-0.291165 -0.291165 -3.00861e+06) (-0.372467 -0.372467 -2.87391e+06) (-0.390083 -0.390083 -2.73066e+06) (-0.252874 -0.252874 -2.62194e+06)
3200          (-0.392409 -0.392409 -1.15532e+06) (-0.28557 -0.28557 -1.15471e+06) (-0.159559 -0.15956 -1.15245e+06) (-0.0999295 -0.0999295 -1.14879e+06) (-0.207764 -0.207764 -1.14367e+06) (-0.039032 -0.039032 -1.96789e+06) (0.464181 0.464181 -3.11234e+06) (0.524247 0.524247 -3.00799e+06) (0.425459 0.425459 -2.87773e+06) (0.215786 0.215786 -2.739e+06) (-0.0454778 -0.0454778 -2.63351e+06)
3250          (0.203176 0.203176 -1.15245e+06) (0.0359866 0.0359866 -1.15186e+06) (-0.226456 -0.226456 -1.14968e+06) (-0.41077 -0.41077 -1.14614e+06) (-0.425926 -0.425926 -1.14119e+06) (0.106815 0.106815 -1.96428e+06) (0.523055 0.523055 -3.10825e+06) (0.626329 0.626329 -3.00737e+06) (0.580637 0.580637 -2.88139e+06) (0.403963 0.403963 -2.74708e+06) (0.107644 0.107644 -2.64475e+06)
3300          (-0.382956 -0.382956 -1.14968e+06) (-0.162582 -0.162582 -1.14911e+06) (0.1642 0.1642 -1.147e+06) (0.355963 0.355963 -1.14357e+06) (0.268662 0.268662 -1.13879e+06) (0.404327 0.404327 -1.96081e+06) (-0.198821 -0.198821 -3.10426e+06) (-0.432465 -0.432465 -3.00675e+06) (-0.454021 -0.454021 -2.88492e+06) (-0.383048 -0.383048 -2.7549e+06) (-0.170585 -0.170585 -2.65569e+06)
3350          (0.217034 0.217034 -1.14722e+06) (0.0396035 0.0396034 -1.14666e+06) (-0.236852 -0.236852 -1.14461e+06) (-0.417862 -0.417862 -1.14125e+06) (-0.414171 -0.41417 -1.13653e+06) (0.175494 0.175494 -1.95679e+06) (0.541543 0.541543 -3.1003e+06) (0.650863 0.650863 -3.00613e+06) (0.606642 0.606642 -2.88832e+06) (0.426522 0.426522 -2.76246e+06) (0.118408 0.118408 -2.6663e+06)
3400          (0.152282 0.152282 -1.14487e+06) (-0.0735468 -0.0735468 -1.14432e+06) (-0.447176 -0.447176 -1.1423e+06) (-0.706466 -0.706466 -1.139e+06) (-0.746082 -0.746082 -1.13437e+06) (0.243126 0.243126 -1.95289e+06) (1.35762 1.35762 -3.09638e+06) (1.44094 1.44094 -3.0055e+06) (1.19868 1.19868 -2.89159e+06) (0.647806 0.647806 -2.76979e+06) (-0.0670804 -0.0670804 -2.67661e+06)
3450          (-0.337053 -0.337053 -1.14242e+06) (-0.175741 -0.175741 -1.14188e+06) (0.0500938 0.0500939 -1.1399e+06) (0.155739 0.155739 -1.13667e+06) (0.0374274 0.0374274 -1.13216e+06) (-0.0456641 -0.0456641 -1.94982e+06) (0.437215 0.437215 -3.09265e+06) (0.537321 0.537321 -3.00485e+06) (0.498123 0.498123 -2.89474e+06) (0.346281 0.346281 -2.77689e+06) (0.090059 0.090059 -2.68662e+06)
3500          (-0.439195 -0.439195 -1.14016e+06) (-0.296478 -0.296478 -1.13963e+06) (-0.122392 -0.122392 -1.1377e+06) (-0.0748422 -0.0748423 -1.13455e+06) (-0.254758 -0.254758 -1.13016e+06) (-0.0286202 -0.0286201 -1.94626e+06) (1.21798 1.21798 -3.08904e+06) (1.3014 1.3014 -3.00421e+06) (1.0779 1.0779 -2.89777e+06) (0.573359 0.573359 -2.78375e+06) (-0.0761011 -0.0761011 -2.69633e+06)
3550          (0.201912 0.201912 -1.13782e+06) (0.0322162 0.0322162 -1.13731e+06) (-0.230795 -0.230795 -1.13543e+06) (-0.38935 -0.38935 -1.13237e+06) (-0.363233 -0.363233 -1.12811e+06) (0.194375 0.194375 -1.94344e+06) (0.472456 0.472456 -3.0856e+06) (0.569089 0.569089 -3.00358e+06) (0.533848 0.533848 -2.90068e+06) (0.378798 0.378798 -2.7904e+06) (0.108167 0.108167 -2.70575e+06)
3600          (0.143141 0.143141 -1.13568e+06) (-0.0690342 -0.0690342 -1.13518e+06) (-0.41712 -0.41712 -1.13335e+06) (-0.644841 -0.644841 -1.13038e+06) (-0.659 -0.659 -1.12624e+06) (0.253127 0.253127 -1.94013e+06) (1.19894 1.19894 -3.08226e+06) (1.27608 1.27608 -3.00296e+06) (1.06688 1.06688 -2.90349e+06) (0.57982 0.57982 -2.79683e+06) (-0.0584692 -0.0584692 -2.71488e+06)
3650          (-0.308614 -0.308614 -1.13359e+06) (-0.203913 -0.203913 -1.1331e+06) (-0.0743124 -0.0743123 -1.13132e+06) (-0.0438341 -0.0438341 -1.12841e+06) (-0.184702 -0.184702 -1.12434e+06) (-0.12557 -0.12557 -1.93719e+06) (0.282139 0.282139 -3.07898e+06) (0.360376 0.360376 -3.00236e+06) (0.304255 0.304255 -2.90621e+06) (0.167352 0.167352 -2.80305e+06) (-0.0179326 -0.0179326 -2.72374e+06)
3700          (-0.299143 -0.299143 -1.13161e+06) (-0.197501 -0.197501 -1.13113e+06) (-0.0714162 -0.0714163 -1.12938e+06) (-0.0426897 -0.0426897 -1.12651e+06) (-0.181835 -0.181835 -1.12252e+06) (-0.132526 -0.132526 -1.93427e+06) (0.280319 0.280319 -3.07575e+06) (0.359605 0.359605 -3.00177e+06) (0.304717 0.304717 -2.90883e+06) (0.169192 0.169192 -2.80908e+06) (-0.0160342 -0.0160342 -2.73232e+06)
3750          (-0.290315 -0.290315 -1.12966e+06) (-0.191393 -0.191393 -1.12919e+06) (-0.0683738 -0.0683738 -1.12747e+06) (-0.0413651 -0.0413651 -1.12467e+06) (-0.17912 -0.17912 -1.12077e+06) (-0.134231 -0.134231 -1.9315e+06) (0.276065 0.276065 -3.07266e+06) (0.354744 0.354744 -3.00117e+06) (0.301218 0.301218 -2.91135e+06) (0.168024 0.168024 -2.8149e+06) (-0.0147693 -0.0147693 -2.74064e+06)
3800          (-0.281745 -0.281745 -1.12776e+06) (-0.185387 -0.185387 -1.1273e+06) (-0.0654266 -0.0654265 -1.12562e+06) (-0.0401892 -0.0401891 -1.12288e+06) (-0.17595 -0.17595 -1.11908e+06) (-0.1333 -0.1333 -1.92885e+06) (0.270647 0.270647 -3.0697e+06) (0.347905 0.347905 -3.00059e+06) (0.295876 0.295876 -2.91379e+06) (0.16553 0.16553 -2.82054e+06) (-0.0138442 -0.0138442 -2.7487e+06)
3850          (0.120418 0.120418 -1.12599e+06) (-0.124783 -0.124783 -1.12554e+06) (-0.536192 -0.536192 -1.1239e+06) (-0.803132 -0.803132 -1.12124e+06) (-0.822819 -0.822819 -1.11752e+06) (0.0221172 0.0221172 -1.92593e+06) (0.839531 0.839531 -3.06681e+06) (0.937489 0.937489 -3.00003e+06) (0.836026 0.836026 -2.91614e+06) (0.531576 0.531576 -2.826e+06) (0.0738905 0.0738905 -2.75652e+06)
3900          (-0.237086 -0.237086 -1.12418e+06) (-0.117901 -0.117901 -1.12374e+06) (0.0493689 0.0493689 -1.12212e+06) (0.113605 0.113605 -1.1195e+06) (0.000275202 0.00027518 -1.11584e+06) (-0.0586335 -0.0586334 -1.92377e+06) (0.415456 0.415456 -3.06399e+06) (0.517424 0.517424 -2.99949e+06) (0.485793 0.485793 -2.91841e+06) (0.345053 0.345053 -2.83127e+06) (0.098826 0.0988261 -2.76407e+06)