# Probe 0 (0.0015 0.0015 0)
# Probe 1 (0.0015 0.0015 0.01)
# Probe 2 (0.0015 0.0015 0.02)
# Probe 3 (0.0015 0.0015 0.03)
# Probe 4 (0.0015 0.0015 0.04)
# Probe 5 (0.0015 0.0015 0.05)
# Probe 6 (0.0015 0.0015 0.06)
# Probe 7 (0.0015 0.0015 0.07)
# Probe 8 (0.0015 0.0015 0.08)
# Probe 9 (0.0015 0.0015 0.09)
# Probe 10 (0.0015 0.0015 0.1)
# Time        0             1             2             3             4             5             6             7             8             9             10           
50            (0.0451915 0.0451915 13781.1) (0.0400649 0.0400649 12098.2) (0.01474 0.01474 7136.66) (0.00276126 0.00276126 3097.57) (0.000675241 0.000675241 1066.44) (0.000817015 0.000817014 200.786) (0.000274183 0.000274193 -6.19537) (-8.90195e-07 -8.98099e-07 -0.550563) (0.000167659 0.000167643 5.51841) (0.00365642 0.00365641 199.273) (0.000770962 0.000770956 2567.06)
100           (-0.00718556 -0.00718556 10017.1) (-0.00755675 -0.00755675 9482.36) (-0.00690512 -0.00690512 7537.14) (-0.00476596 -0.00476596 4917.4) (-0.00264893 -0.00264893 2586.57) (-0.00220818 -0.00220818 862.869) (0.00138368 0.00138368 52.0017) (0.000113019 0.000113019 1.40835) (0.000906011 0.000906011 31.2985) (0.00547182 0.00547182 403.214) (-0.00070301 -0.00070301 2172.6)
150           (0.0014809 0.0014809 8218.14) (0.00173627 0.00173627 7937.02) (0.002143 0.002143 6888.89) (0.00234857 0.00234857 5294.81) (0.002314 0.002314 3494.65) (0.00340051 0.00340051 1514.52) (-0.00118837 -0.00118837 176.616) (-0.000235166 -0.000235166 14.4782) (-0.000878691 -0.000878691 73.5686) (-0.00282511 -0.00282511 537.134) (0.000501261 0.000501261 1905.1)
200           (0.000193884 0.000193884 7114.4) (0.000348363 0.000348363 6934.54) (0.000562964 0.000562964 6260.59) (0.000719887 0.000719887 5197.32) (0.000701413 0.000701413 3883.36) (-0.000381738 -0.000381738 1972.34) (-0.000215299 -0.000215299 340.824) (-0.000134845 -0.000134845 45.5108) (-0.000437988 -0.000437988 122.649) (-0.00100421 -0.00100421 618.722) (3.78168e-06 3.78166e-06 1712.3)
250           (-0.000631934 -0.000631934 6351.01) (-0.000596091 -0.000596091 6224.15) (-0.000643895 -0.000643895 5748.89) (-0.000605783 -0.000605783 4989.18) (-0.000661082 -0.000661082 4013.09) (-0.00651112 -0.00651112 2245.2) (0.000815369 0.000815369 512.035) (0.000324619 0.000324619 96.0198) (0.000253732 0.000253732 172.906) (0.000174249 0.000174249 667.265) (-0.000512787 -0.000512787 1566.26)
300           (-0.00105507 -0.00105507 5787.65) (-0.00110442 -0.00110442 5693.02) (-0.0013478 -0.0013478 5339) (-0.00144281 -0.00144281 4769.62) (-0.00160522 -0.00160522 4022.12) (-0.0124126 -0.0124126 2391.7) (0.00123687 0.00123687 669.139) (0.000995261 0.000995261 162.864) (0.000994657 0.000994657 222.415) (0.000885792 0.000885792 695.633) (-0.000879758 -0.000879758 1451.31)
350           (-0.0149734 -0.0149734 5354) (-0.0175476 -0.0175476 5280.66) (-0.0238038 -0.0238038 5006.57) (-0.0273509 -0.0273509 4563.89) (-0.0280328 -0.0280328 3974.1) (-0.161745 -0.161745 2460.9) (0.00302343 0.00302343 803.404) (0.0101357 0.0101357 240.664) (0.0118168 0.0118168 270.999) (0.0101294 0.0101294 711.872) (-0.00613874 -0.00613874 1358.13)
400           (-0.0115379 -0.0115379 5009.65) (-0.0135614 -0.0135614 4951.05) (-0.0185977 -0.0185977 4732.13) (-0.0218112 -0.0218112 4377.36) (-0.0231936 -0.0231936 3899.45) (-0.143994 -0.143994 2484.31) (-0.000677712 -0.000677712 913.749) (0.00936714 0.00936714 323.879) (0.0107977 0.0107977 318.935) (0.00788395 0.00788395 721.031) (-0.00510955 -0.00510955 1280.84)
450           (-0.00913005 -0.00913005 4728.96) (-0.0107567 -0.0107567 4680.92) (-0.0148811 -0.0148811 4501.53) (-0.0177319 -0.0177319 4210.02) (-0.0193893 -0.0193893 3814.05) (-0.126877 -0.126877 2481.2) (-0.00312474 -0.00312474 1002.53) (0.00813505 0.00813505 407.886) (0.00970285 0.00970285 366.387) (0.00625863 0.00625863 726.308) (-0.00424073 -0.00424073 1215.64)
500           (-0.00740525 -0.00740525 4495.07) (-0.0087413 -0.0087413 4454.85) (-0.0121782 -0.0121782 4304.73) (-0.0146921 -0.0146921 4060.29) (-0.0164132 -0.0164132 3726.16) (-0.111644 -0.111644 2463.05) (-0.00462686 -0.00462686 1073.19) (0.00680738 0.00680738 489.35) (0.00869557 0.00869557 413.302) (0.00513677 0.00513677 729.74) (-0.00354463 -0.00354463 1159.93)
550           (-0.006136 -0.006136 4296.63) (-0.00725409 -0.00725409 4262.39) (-0.0101629 -0.0101629 4134.6) (-0.0123802 -0.0123802 3926.22) (-0.0140619 -0.0140619 3640.08) (-0.0984818 -0.0984818 2436.7) (-0.0054851 -0.0054851 1129.16) (0.00552867 0.00552867 566.141) (0.0077745 0.0077745 459.446) (0.00434681 0.00434681 732.604) (-0.00298653 -0.00298653 1111.91)
600           (-0.00517551 -0.00517551 4125.8) (-0.00612596 -0.00612596 4096.23) (-0.00862065 -0.00862065 3985.95) (-0.0105817 -0.0105817 3805.95) (-0.0121763 -0.0121763 3557.94) (-0.0872135 -0.0872135 2406.24) (-0.00592015 -0.00592015 1173.42) (0.00436583 0.00436583 637.088) (0.00692795 0.00692795 504.498) (0.00377097 0.00377097 735.674) (-0.00253178 -0.00253178 1070.28)
650           (0.00358207 0.00358207 3977.11) (0.00435651 0.00435651 3951.29) (0.00622003 0.00622003 3855.01) (0.00810095 0.00810095 3697.74) (0.00866811 0.00866811 3480.91) (0.0612414 0.0612414 2372.53) (0.00862754 0.00862754 1208.48) (-0.00423956 -0.00423956 701.695) (-0.00819625 -0.00819625 548.113) (-0.00452012 -0.00452012 739.389) (0.00289377 0.00289377 1034.09)
700           (0.000389504 0.000389504 3846.52) (0.000417396 0.000417396 3823.72) (0.000552504 0.000552504 3738.77) (0.000693788 0.000693788 3600.01) (0.000566711 0.000566711 3408.07) (-0.00250417 -0.00250417 2340.45) (0.00142987 0.00142987 1236.2) (1.72458e-05 1.72458e-05 759.963) (-0.000641145 -0.000641145 590.006) (-0.00048678 -0.00048678 743.963) (0.000114911 0.000114911 1002.59)
750           (0.000344044 0.000344044 3730.54) (0.000373558 0.000373558 3710.29) (0.000486884 0.000486883 3634.87) (0.000571496 0.000571496 3511.67) (0.000618158 0.000618158 3341.17) (-0.00223743 -0.00223743 2308.78) (0.00113781 0.00113781 1258) (0.000142135 0.000142135 812.135) (-0.000390933 -0.000390933 629.944) (-0.000349604 -0.000349604 749.464) (8.78291e-05 8.78291e-05 975.22)
800           (0.000298898 0.000298898 3627.03) (0.000325023 0.000325023 3608.94) (0.00042355 0.00042355 3541.61) (0.000498934 0.000498935 3431.63) (0.000543198 0.000543198 3279.32) (-0.00221256 -0.00221256 2278.23) (0.00102131 0.00102131 1275.1) (0.000185707 0.000185707 858.605) (-0.000290205 -0.000290205 667.768) (-0.000282545 -0.000282545 755.874) (6.5593e-05 6.5593e-05 951.516)
850           (-0.000429764 -0.000429764 3534.2) (-0.000373477 -0.000373477 3517.96) (-0.000402687 -0.000402687 3457.52) (-0.000171682 -0.000171682 3358.99) (-0.000970172 -0.000970172 3222.21) (-0.00940254 -0.00940254 2248.93) (-6.49449e-05 -6.49449e-05 1288.44) (0.00051532 0.00051532 899.847) (0.000677022 0.000677022 703.388) (0.000255715 0.000255715 763.115) (-0.000245019 -0.000245019 931.092)
900           (0.00176619 0.00176619 3450.59) (0.00218283 0.00218283 3435.89) (0.00366442 0.00366442 3381.51) (0.00435629 0.00435629 3292.76) (0.00422659 0.00422659 3169.23) (0.0344085 0.0344085 2221.1) (0.00823713 0.00823713 1298.8) (-3.48797e-05 -3.48797e-05 936.332) (-0.00454567 -0.00454567 736.748) (-0.00305737 -0.00305737 771.081) (0.00137642 0.00137642 913.626)
950           (0.00149666 0.00149666 3375) (0.00206917 0.00206917 3361.63) (0.00342648 0.00342648 3312.49) (0.00387528 0.00387528 3232.14) (0.00379843 0.00379843 3120.32) (0.0308072 0.0308072 2194.9) (0.00778581 0.00778581 1306.69) (0.000472752 0.000472752 968.574) (-0.00386453 -0.00386453 767.873) (-0.00279416 -0.00279416 779.654) (0.00114141 0.00114141 898.83)
1000          (0.00126858 0.00126858 3306.38) (0.00195291 0.00195291 3294.18) (0.0031222 0.0031222 3249.6) (0.00339551 0.00339551 3176.6) (0.00340466 0.00340466 3075.07) (0.0272701 0.0272701 2170.19) (0.00722935 0.00722935 1312.58) (0.000869546 0.000869546 997.026) (-0.00318217 -0.00318217 796.811) (-0.00248931 -0.00248931 788.715) (0.000906356 0.000906356 886.455)
1050          (0.00108838 0.00108838 3243.87) (0.00183715 0.00183715 3232.72) (0.0028698 0.0028698 3192.14) (0.00305391 0.00305391 3125.62) (0.00312837 0.00312837 3033.13) (0.0245034 0.0245034 2146.9) (0.00677564 0.00677564 1316.84) (0.00118445 0.00118445 1022.11) (-0.00261544 -0.00261544 823.638) (-0.00223386 -0.00223386 798.149) (0.000706307 0.000706307 876.275)
1100          (0.00317787 0.00317787 3186.99) (0.00458046 0.00458046 3176.57) (0.00637933 0.00637933 3139.72) (0.00642614 0.00642614 3078.79) (0.00741473 0.00741473 2994.06) (0.0633037 0.0633037 2125.08) (0.0158193 0.0158193 1319.76) (0.00356717 0.00356717 1044.2) (-0.00535478 -0.00535478 848.452) (-0.00505355 -0.00505355 807.852) (0.00134865 0.00134865 868.086)
1150          (5.65276e-05 5.65277e-05 3134.73) (0.000984116 0.000984116 3125.23) (0.00127764 0.00127764 3091.36) (0.000430928 0.000430928 3035.58) (-0.000114372 -0.000114372 2958.16) (-0.00433143 -0.00433143 2103.9) (-0.000794827 -0.000794827 1321.49) (-0.000272442 -0.000272442 1063.65) (8.12295e-05 8.12295e-05 871.368) (0.000144773 0.000144773 817.735) (-2.82171e-05 -2.82172e-05 861.707)
1200          (0.00599209 0.00599209 3086.68) (0.00788263 0.00788263 3077.96) (0.0113577 0.0113577 3046.86) (0.0126224 0.0126224 2995.59) (0.0142694 0.0142694 2924.29) (0.121787 0.121787 2084.72) (0.00272862 0.00272862 1322.48) (0.000628766 0.000628766 1080.76) (-0.000462815 -0.000462815 892.482) (-0.000503308 -0.000503308 827.702) (2.19935e-05 2.19935e-05 856.95)
1250          (0.0101021 0.0101021 3042.58) (0.0126648 0.0126648 3034.45) (0.0176026 0.0176026 3005.89) (0.0212842 0.0212842 2958.57) (0.0250591 0.0250591 2892.85) (0.210315 0.210315 2066.36) (0.0371541 0.0371541 1322.65) (0.0132025 0.0132025 1095.8) (-0.00729223 -0.00729223 911.924) (-0.0102815 -0.0102815 837.694) (0.000835937 0.000835937 853.673)
1300          (0.00276053 0.00276053 3001.82) (0.00404043 0.00404043 2994.32) (0.00552832 0.00552832 2967.94) (0.00600533 0.00600533 2924.21) (0.00713175 0.00713175 2863.53) (0.0580363 0.0580363 2048.95) (0.0201983 0.0201983 1322.21) (0.00804999 0.00804999 1109.03) (-0.0029356 -0.0029356 929.814) (-0.00525081 -0.00525081 847.65) (5.65778e-05 5.65782e-05 851.723)
1350          (0.00213951 0.00213951 2964.17) (0.00342081 0.00342081 2957.19) (0.0046769 0.0046769 2932.8) (0.00474214 0.00474214 2892.3) (0.00562314 0.00562314 2836.01) (0.0478389 0.0478389 2032.57) (0.0147035 0.0147035 1321.28) (0.00629047 0.00629047 1120.64) (-0.00139806 -0.00139806 946.264) (-0.00347201 -0.00347201 857.518) (-0.000248665 -0.000248665 850.963)
1400          (0.000684579 0.000684579 2929.3) (0.00166979 0.00166979 2922.82) (0.00208447 0.00208447 2900.18) (0.0010976 0.0010976 2862.55) (0.00135103 0.00135103 2810.28) (0.0124122 0.0124122 2017.03) (0.00668693 0.00668693 1319.91) (0.0030729 0.0030729 1130.83) (-0.000280681 -0.000280681 961.387) (-0.00139426 -0.00139426 867.261) (-0.000233234 -0.000233234 851.272)
1450          (0.000549953 0.000549953 2896.88) (0.00145937 0.00145937 2890.85) (0.00179425 0.00179425 2869.78) (0.000867601 0.000867601 2834.77) (0.00102673 0.00102673 2786.13) (0.00973398 0.00973398 2002.3) (0.00603187 0.00603187 1318.2) (0.00295116 0.00295116 1139.77) (-6.27296e-06 -6.27295e-06 975.289) (-0.00115502 -0.00115502 876.846) (-0.000318268 -0.000318268 852.53)
1500          (0.000461382 0.000461382 2866.67) (0.00128948 0.00128948 2861.04) (0.00158858 0.00158858 2841.41) (0.000708843 0.000708843 2808.79) (0.000799208 0.000799208 2763.42) (0.00791239 0.00791239 1988.36) (0.00553852 0.00553852 1316.23) (0.00286358 0.00286358 1147.59) (0.000210044 0.000210044 988.069) (-0.000967127 -0.000967127 886.248) (-0.000388885 -0.000388885 854.631)
1550          (5.45812e-05 5.45812e-05 2838.78) (0.0016147 0.0016147 2833.23) (0.00200641 0.00200641 2815.16) (0.000551934 0.000551934 2784.57) (0.000199841 0.000199841 2742.01) (0.00496219 0.00496219 1975.02) (0.000968017 0.000968017 1313.98) (0.000647439 0.000647439 1154.44) (8.8156e-05 8.8156e-05 999.824) (-0.000189471 -0.000189471 895.451) (-8.11619e-05 -8.11619e-05 857.48)
1600          (-2.34316e-05 -2.34317e-05 2812.45) (0.000908232 0.000908232 2807.29) (0.00137417 0.00137417 2790.34) (-0.000618486 -0.000618486 2761.67) (9.51039e-05 9.51039e-05 2721.89) (-0.00558233 -0.00558233 1962.41) (-0.00316581 -0.00316581 1311.58) (-0.00177715 -0.00177715 1160.43) (-0.000430715 -0.000430715 1010.64) (0.000355231 0.000355231 904.438) (0.000317271 0.000317271 860.98)
1650          (-0.00120366 -0.00120366 2788.02) (0.000158174 0.000158174 2783.04) (1.32143e-06 1.32151e-06 2767.23) (-0.00223967 -0.00223967 2740.31) (-0.00298032 -0.00298032 2702.74) (-0.0217393 -0.0217393 1950.45) (-0.00721412 -0.00721412 1309.04) (-0.00448113 -0.00448113 1165.64) (-0.00126782 -0.00126782 1020.6) (0.000766166 0.000766166 913.2) (0.000826377 0.000826377 865.047)
1700          (-0.00116112 -0.00116112 2764.92) (5.57994e-05 5.57995e-05 2760.23) (-1.53483e-05 -1.53484e-05 2745.35) (-0.00203269 -0.00203269 2720.08) (-0.00289058 -0.00289058 2684.73) (-0.0207932 -0.0207932 1939.04) (-0.00691333 -0.00691333 1306.4) (-0.00444885 -0.00444885 1170.18) (-0.00144062 -0.00144062 1029.77) (0.00062059 0.00062059 921.731) (0.000890368 0.000890368 869.607)
1750          (1.06052e-05 1.06052e-05 2743) (0.00108952 0.00108952 2738.77) (0.00185046 0.00185046 2724.58) (0.00138005 0.00138005 2700.9) (0.000779148 0.000779148 2667.69) (0.007122 0.007122 1928.18) (0.00213123 0.00213123 1303.71) (0.00138859 0.00138859 1174.12) (0.000379763 0.000379763 1038.23) (-0.000298066 -0.000298066 930.027) (-0.000340531 -0.000340531 874.59)
1800          (0.000476032 0.000476032 2722.54) (0.0009684 0.0009684 2718.54) (0.000950778 0.000950778 2705.16) (5.81785e-05 5.81785e-05 2682.82) (-0.000226468 -0.000226468 2651.44) (0.00310641 0.00310641 1917.9) (0.000940517 0.000940517 1300.94) (0.000644909 0.000644909 1177.53) (0.00018535 0.00018535 1046.05) (-0.000151733 -0.000151733 938.089) (-0.000186381 -0.000186381 879.932)
1850          (7.05763e-05 7.05764e-05 2703.34) (0.000461666 0.000461666 2699.59) (0.000642026 0.000642026 2686.88) (-0.000125723 -0.000125723 2665.86) (-0.001432 -0.001432 2636.26) (-0.0081256 -0.0081256 1907.6) (-0.00344642 -0.00344642 1298.11) (-0.00236758 -0.00236758 1180.48) (-0.000979798 -0.000979798 1053.27) (0.000176766 0.000176766 945.917) (0.000621951 0.000621951 885.576)
1900          (-0.00060311 -0.00060311 2685.58) (-0.0003025 -0.0003025 2681.98) (-0.000654608 -0.000654608 2669.98) (-0.00239525 -0.00239525 2649.89) (-0.0041285 -0.0041285 2621.42) (-0.0269901 -0.0269901 1897.96) (-0.00876566 -0.00876566 1295.2) (-0.00622427 -0.00622427 1183.01) (-0.00270287 -0.00270287 1059.95) (0.00033038 0.00033038 953.514) (0.00151622 0.00151622 891.468)
1950          (-0.00129738 -0.00129738 2668.47) (-0.00122768 -0.00122768 2665.36) (-0.00183586 -0.00183586 2653.71) (-0.00287901 -0.00287901 2634.45) (-0.00360488 -0.00360488 2607.37) (-0.0255585 -0.0255585 1888.88) (-0.00884171 -0.00884171 1292.28) (-0.00645705 -0.00645705 1185.16) (-0.00298055 -0.00298055 1066.14) (0.00022907 0.00022907 960.881) (0.00168364 0.00168364 897.56)
2000          (0.000815716 0.000815716 2652.76) (0.00075597 0.000755969 2649.72) (0.00082116 0.00082116 2638.45) (0.000972002 0.000972002 2620) (0.00118937 0.00118936 2594.13) (0.00406434 0.00406434 1880.13) (0.000225336 0.000225336 1289.37) (0.000226435 0.000226435 1186.99) (0.000145927 0.000145927 1071.88) (5.21065e-05 5.21065e-05 968.023) (-2.86409e-05 -2.86409e-05 903.808)
2050          (-0.000151555 -0.000151555 2637.56) (2.42454e-05 2.42454e-05 2634.64) (0.000295022 0.000295022 2623.83) (0.000522786 0.000522786 2606.14) (0.000652231 0.000652231 2581.4) (-0.00447501 -0.00447501 1871.76) (-0.00247234 -0.00247234 1286.47) (-0.00192701 -0.00192701 1188.53) (-0.00100042 -0.00100042 1077.21) (-3.91238e-05 -3.91239e-05 974.945) (0.000502532 0.000502532 910.176)
2100          (0.000105426 0.000105426 2623.01) (0.000139012 0.000139012 2620.22) (0.000226674 0.000226674 2609.86) (0.000294271 0.000294271 2592.93) (0.000291905 0.000291905 2569.26) (-0.0073879 -0.0073879 1863.79) (-0.00300848 -0.00300848 1283.62) (-0.00236266 -0.00236266 1189.82) (-0.0012645 -0.0012645 1082.17) (-8.43918e-05 -8.43919e-05 981.654) (0.000616635 0.000616635 916.63)
2150          (0.000147119 0.000147119 2609.09) (0.000152262 0.000152263 2606.41) (0.000194524 0.000194524 2596.5) (0.000232224 0.000232224 2580.31) (0.00024529 0.00024529 2557.67) (-0.00697153 -0.00697153 1856.17) (-0.00287529 -0.00287529 1280.81) (-0.00229736 -0.00229736 1190.9) (-0.00127185 -0.00127185 1086.79) (-0.000116072 -0.000116072 988.153) (0.000620854 0.000620854 923.138)
2200          (0.00014437 0.00014437 2595.76) (0.000149147 0.000149147 2593.19) (0.000190098 0.000190098 2583.71) (0.000227164 0.000227164 2568.22) (0.000241692 0.000241692 2546.58) (-0.00662528 -0.00662528 1848.88) (-0.00274347 -0.00274347 1278.06) (-0.00222278 -0.00222278 1191.79) (-0.0012652 -0.0012652 1091.11) (-0.000142356 -0.000142356 994.447) (0.000616043 0.000616043 929.673)
2250          (0.000140828 0.000140828 2583) (0.000145819 0.00014582 2580.55) (0.000186351 0.000186351 2571.47) (0.000223198 0.000223198 2556.66) (0.000238708 0.000238708 2535.95) (-0.00630178 -0.00630178 1841.88) (-0.00262009 -0.00262009 1275.36) (-0.00214928 -0.00214928 1192.51) (-0.00125333 -0.00125333 1095.14) (-0.000164197 -0.000164197 1000.54) (0.00060747 0.00060747 936.208)
2300          (0.000137286 0.000137286 2570.79) (0.000142485 0.000142485 2568.44) (0.000182591 0.000182591 2559.76) (0.000219192 0.000219192 2545.57) (0.000235551 0.000235551 2525.75) (-0.00599955 -0.00599955 1835.14) (-0.00250476 -0.00250476 1272.71) (-0.00207774 -0.00207774 1193.1) (-0.00123772 -0.00123772 1098.92) (-0.000182155 -0.000182155 1006.45) (0.000597008 0.000597008 942.725)
2350          (0.000133749 0.000133749 2559.1) (0.000139128 0.000139128 2556.85) (0.000178762 0.000178762 2548.53) (0.000215062 0.000215062 2534.94) (0.000232131 0.000232131 2515.95) (-0.0057175 -0.0057175 1828.66) (-0.00239686 -0.00239686 1270.11) (-0.00200847 -0.00200847 1193.56) (-0.00121922 -0.00121922 1102.46) (-0.000196718 -0.000196718 1012.16) (0.000585444 0.000585444 949.203)
2400          (0.00013022 0.00013022 2547.89) (0.000135746 0.000135746 2545.74) (0.000174853 0.000174853 2537.76) (0.000210788 0.000210788 2524.74) (0.000228429 0.000228429 2506.53) (-0.00545433 -0.00545433 1822.42) (-0.0022958 -0.0022958 1267.57) (-0.00194159 -0.00194159 1193.92) (-0.00119848 -0.00119848 1105.8) (-0.000208323 -0.000208323 1017.7) (0.000573172 0.000573172 955.626)
2450          (0.000126708 0.000126708 2537.15) (0.000132347 0.000132347 2535.08) (0.000170871 0.000170871 2527.43) (0.000206376 0.000206376 2514.94) (0.000224457 0.000224457 2497.48) (-0.00520868 -0.00520868 1816.4) (-0.002201 -0.002201 1265.08) (-0.0018771 -0.0018771 1194.18) (-0.001176 -0.001176 1108.94) (-0.000217363 -0.000217363 1023.06) (0.000560427 0.000560427 961.98)
2500          (-0.000681355 -0.000681355 2526.82) (-0.000638763 -0.000638763 2524.84) (-0.000714942 -0.000714942 2517.5) (-0.000767328 -0.000767328 2505.52) (-0.000811391 -0.000811391 2488.78) (-0.0128565 -0.0128565 1810.57) (-0.00453622 -0.00453622 1262.65) (-0.0038771 -0.0038771 1194.37) (-0.00247846 -0.00247846 1111.91) (-0.000514393 -0.000514393 1028.25) (0.00113153 0.00113153 968.255)
2550          (-0.000146695 -0.000146695 2516.91) (-0.000140789 -0.000140789 2515.01) (-0.000177407 -0.000177407 2507.96) (-0.000221455 -0.000221455 2496.44) (-0.000177841 -0.000177841 2480.34) (-0.00760513 -0.00760513 1805.06) (-0.00315065 -0.00315065 1260.27) (-0.00279804 -0.00279804 1194.48) (-0.00187335 -0.00187335 1114.71) (-0.000509548 -0.000509548 1033.28) (0.00070126 0.00070126 974.434)
2600          (-0.000359422 -0.000359422 2507.41) (-0.000260513 -0.000260513 2505.57) (-0.000164864 -0.000164864 2498.8) (-5.2906e-05 -5.2906e-05 2487.77) (-7.14307e-05 -7.14307e-05 2472.3) (-0.00375247 -0.00375247 1799.54) (-0.00202286 -0.00202286 1257.94) (-0.00176755 -0.00176755 1194.54) (-0.00116988 -0.00116988 1117.37) (-0.000279655 -0.000279655 1038.15) (0.000500199 0.000500199 980.518)
2650          (0.000142271 0.000142271 2498.49) (0.000147499 0.000147499 2496.72) (0.000301444 0.000301444 2490.17) (0.000687358 0.000687358 2479.45) (-0.000448801 -0.000448801 2464.41) (0.00102926 0.00102926 1794.28) (-0.000619433 -0.000619433 1255.62) (-0.000684927 -0.000684927 1194.54) (-0.000568217 -0.000568217 1119.89) (-0.000288755 -0.000288755 1042.86) (5.63489e-05 5.63489e-05 986.491)
2700          (-6.62486e-05 -6.62487e-05 2489.73) (0.000139546 0.000139546 2488.02) (0.000709493 0.000709493 2481.7) (0.0013833 0.0013833 2471.43) (0.00104534 0.00104534 2456.96) (-0.00280658 -0.00280658 1789.16) (-0.000388387 -0.000388387 1253.39) (-0.000399299 -0.000399299 1194.48) (-0.000336844 -0.000336844 1122.28) (-0.000190996 -0.000190996 1047.43) (2.13628e-05 2.13628e-05 992.35)
2750          (-1.18509e-05 -1.18508e-05 2481.66) (0.000211658 0.000211658 2480) (0.000573191 0.000573191 2473.88) (0.000924633 0.000924633 2463.85) (0.00128781 0.00128781 2449.75) (0.00136187 0.00136187 1784.08) (-0.000613026 -0.000613026 1251.18) (-0.000566237 -0.000566237 1194.39) (-0.000391135 -0.000391135 1124.55) (-0.00013252 -0.00013252 1051.85) (9.08742e-05 9.08742e-05 998.092)
2800          (-3.34458e-05 -3.3446e-05 2473.77) (-1.4126e-05 -1.41259e-05 2472.15) (8.33647e-06 8.33665e-06 2466.15) (3.22184e-05 3.22185e-05 2456.34) (3.21193e-05 3.21193e-05 2442.55) (-0.0048802 -0.0048802 1779.29) (-0.00213163 -0.00213163 1249) (-0.00195805 -0.00195805 1194.26) (-0.00138413 -0.00138413 1126.71) (-0.000448081 -0.000448081 1056.13) (0.000468457 0.000468457 1003.7)
2850          (-0.000691032 -0.000691032 2466.05) (-0.000629259 -0.000629259 2464.47) (-0.000691958 -0.000691958 2458.63) (-0.000746064 -0.000746064 2449.07) (-0.000772754 -0.000772754 2435.68) (-0.00740431 -0.00740431 1774.69) (-0.00264907 -0.00264907 1246.87) (-0.0022092 -0.0022092 1194.1) (-0.0013852 -0.0013852 1128.77) (-0.000148255 -0.000148255 1060.28) (0.000931976 0.000931976 1009.2)
2900          (0.00049145 0.00049145 2458.94) (0.000550482 0.000550482 2457.4) (0.000761431 0.000761431 2451.71) (0.000961831 0.000961831 2442.41) (0.00115132 0.00115132 2429.39) (-0.000970308 -0.000970308 1770.19) (-0.000316887 -0.000316887 1244.82) (-0.000326373 -0.000326373 1193.9) (-0.000256865 -0.000256865 1130.74) (-0.000120382 -0.000120382 1064.3) (4.0463e-05 4.0463e-05 1014.57)
2950          (-0.000109146 -0.000109146 2451.69) (2.02244e-05 2.02244e-05 2450.19) (0.000209481 0.000209481 2444.66) (0.000438518 0.000438518 2435.64) (0.000776968 0.000776968 2423.02) (0.000597534 0.000597534 1765.98) (-0.000268307 -0.000268307 1242.84) (-0.000325552 -0.000325552 1193.69) (-0.000298955 -0.000298955 1132.61) (-0.000203639 -0.000203639 1068.19) (-4.43438e-05 -4.43438e-05 1019.8)
3000          (0.000531238 0.000531238 2444.63) (0.000345969 0.000345969 2443.18) (9.71803e-05 9.71802e-05 2437.82) (-0.000296627 -0.000296627 2429.08) (-0.000697579 -0.000697579 2416.86) (-0.00316877 -0.00316877 1761.91) (-0.000210808 -0.000210808 1240.92) (-5.64554e-05 -5.64554e-05 1193.46) (3.80414e-05 3.80414e-05 1134.41) (0.000140509 0.000140509 1071.96) (0.000175212 0.000175212 1024.91)
3050          (0.000740559 0.000740559 2438.14) (0.000651692 0.000651692 2436.73) (0.00060109 0.00060109 2431.53) (0.000494519 0.000494519 2423.06) (0.000505973 0.000505973 2411.22) (-0.000389653 -0.000389653 1757.89) (-0.000200331 -0.000200331 1239.07) (-0.000219462 -0.000219462 1193.22) (-0.000175087 -0.000175087 1136.12) (-8.54538e-05 -8.54538e-05 1075.6) (2.32647e-05 2.32647e-05 1029.88)
3100          (-0.000336853 -0.000336853 2431.52) (-6.89632e-05 -6.89632e-05 2430.16) (0.000364757 0.000364757 2425.13) (0.000768348 0.000768348 2416.93) (0.000955363 0.000955363 2405.48) (3.92989e-05 3.92989e-05 1754.12) (-0.000235576 -0.000235576 1237.28) (-0.000283257 -0.000283257 1192.98) (-0.000261431 -0.000261431 1137.76) (-0.000180699 -0.000180699 1079.13) (-4.75389e-05 -4.75389e-05 1034.73)
3150          (0.000804931 0.000804931 2425.11) (0.000387924 0.000387924 2423.79) (-0.000241023 -0.000241023 2418.92) (-0.00072136 -0.00072136 2410.99) (-0.000700734 -0.000700734 2399.92) (-0.00147977 -0.00147977 1750.47) (2.63021e-06 2.63019e-06 1235.54) (0.00011543 0.00011543 1192.74) (0.000147661 0.000147661 1139.34) (0.000154645 0.000154645 1082.55) (0.00010025 0.00010025 1039.45)
3200          (0.0008217 0.0008217 2419.22) (0.000597981 0.000597981 2417.94) (0.000334116 0.000334116 2413.22) (0.000209251 0.000209251 2405.54) (0.000435056 0.000435056 2394.83) (8.17325e-05 8.17325e-05 1746.84) (-0.000184021 -0.000184021 1233.86) (-0.000207833 -0.000207833 1192.49) (-0.00016867 -0.00016867 1140.85) (-8.55466e-05 -8.55466e-05 1085.85) (1.80293e-05 1.80293e-05 1044.03)
3250          (-0.000425449 -0.000425449 2413.21) (-7.53554e-05 -7.53554e-05 2411.98) (0.000474196 0.000474196 2407.42) (0.000860147 0.000860147 2400) (0.000891883 0.000891883 2389.64) (-0.000223668 -0.000223668 1743.43) (-0.000207361 -0.000207361 1232.24) (-0.000248303 -0.000248303 1192.24) (-0.000230188 -0.000230188 1142.3) (-0.000160148 -0.000160148 1089.05) (-4.26747e-05 -4.26747e-05 1048.49)
3300          (0.000801905 0.000801905 2407.41) (0.000340445 0.000340444 2406.21) (-0.000343833 -0.000343833 2401.8) (-0.000745383 -0.000745383 2394.63) (-0.000562576 -0.000562576 2384.61) (-0.000846655 -0.000846655 1740.12) (7.8821e-05 7.8821e-05 1230.66) (0.000171447 0.000171447 1192) (0.000179993 0.000179993 1143.7) (0.000151856 0.000151856 1092.16) (6.76269e-05 6.76269e-05 1052.82)
3350          (-0.000454466 -0.000454466 2402.26) (-8.29291e-05 -8.29291e-05 2401.09) (0.000495964 0.000495964 2396.79) (0.000874998 0.000874997 2389.75) (0.000867268 0.000867268 2379.87) (-0.000367482 -0.000367482 1736.65) (-0.00021469 -0.00021469 1229.09) (-0.000258029 -0.000258029 1191.75) (-0.000240498 -0.000240498 1145.05) (-0.000169091 -0.000169091 1095.15) (-4.69417e-05 -4.69417e-05 1057.03)
3400          (-0.000318876 -0.000318876 2397.34) (0.000154006 0.000154006 2396.19) (0.00093638 0.00093638 2391.96) (0.00147933 0.00147933 2385.04) (0.00156229 0.00156229 2375.35) (-0.000509103 -0.000509103 1733.37) (-0.000538215 -0.000538215 1227.53) (-0.000571247 -0.000571247 1191.5) (-0.000475206 -0.000475206 1146.35) (-0.000256817 -0.000256817 1098.06) (2.65934e-05 2.65934e-05 1061.12)
3450          (0.000705785 0.000705785 2392.21) (0.000367999 0.000367999 2391.08) (-0.000104896 -0.000104896 2386.93) (-0.000326116 -0.000326116 2380.17) (-7.83725e-05 -7.83725e-05 2370.72) (9.56201e-05 9.562e-05 1730.36) (-0.00017333 -0.00017333 1226.06) (-0.000213016 -0.000213016 1191.25) (-0.000197477 -0.000197477 1147.59) (-0.00013728 -0.00013728 1100.87) (-3.57031e-05 -3.57031e-05 1065.09)
3500          (0.000919668 0.000919668 2387.48) (0.00062082 0.00062082 2386.38) (0.000256287 0.000256287 2382.33) (0.000156719 0.000156719 2375.73) (0.000533459 0.000533459 2366.54) (5.99303e-05 5.99302e-05 1727.38) (-0.000482858 -0.000482858 1224.62) (-0.000515928 -0.000515928 1190.99) (-0.000427325 -0.000427325 1148.79) (-0.000227303 -0.000227303 1103.59) (3.01696e-05 3.01696e-05 1068.94)
3550          (-0.0004228 -0.000422801 2382.57) (-6.74603e-05 -6.74603e-05 2381.51) (0.000483282 0.000483282 2377.57) (0.000815294 0.000815294 2371.17) (0.000760606 0.000760606 2362.24) (-0.000407019 -0.000407019 1724.6) (-0.000187301 -0.000187301 1223.26) (-0.00022561 -0.00022561 1190.74) (-0.00021164 -0.00021164 1149.95) (-0.000150171 -0.000150171 1106.23) (-4.2882e-05 -4.2882e-05 1072.67)
3600          (-0.000299735 -0.000299735 2378.09) (0.000144557 0.000144557 2377.05) (0.000873443 0.000873443 2373.23) (0.00135029 0.00135029 2367.01) (0.00137994 0.00137994 2358.34) (-0.000530045 -0.000530045 1721.83) (-0.000475308 -0.000475308 1221.93) (-0.000505891 -0.000505891 1190.5) (-0.000422957 -0.000422957 1151.07) (-0.000229864 -0.000229864 1108.78) (2.31796e-05 2.31796e-05 1076.29)
3650          (0.000646235 0.000646235 2373.72) (0.000426992 0.000426991 2372.71) (0.000155609 0.000155609 2368.97) (9.17881e-05 9.1788e-05 2362.87) (0.000386764 0.000386764 2354.35) (0.000262942 0.000262941 1719.07) (-0.000111851 -0.000111851 1220.63) (-0.000142868 -0.000142868 1190.26) (-0.000120619 -0.000120619 1152.14) (-6.63451e-05 -6.63452e-05 1111.25) (7.10923e-06 7.10922e-06 1079.8)
3700          (0.000626402 0.000626402 2369.57) (0.000413564 0.000413564 2368.58) (0.000149545 0.000149545 2364.9) (8.93917e-05 8.93916e-05 2358.91) (0.00038076 0.00038076 2350.54) (0.000277507 0.000277507 1716.44) (-0.00011113 -0.00011113 1219.35) (-0.000142562 -0.000142562 1190.02) (-0.000120802 -0.000120802 1153.18) (-6.70749e-05 -6.70749e-05 1113.63) (6.35663e-06 6.35662e-06 1083.21)
3750          (0.000607915 0.000607915 2365.5) (0.000400775 0.000400775 2364.52) (0.000143174 0.000143174 2360.91) (8.6618e-05 8.66181e-05 2355.05) (0.000375075 0.000375075 2346.87) (0.000281078 0.000281078 1713.94) (-0.000109444 -0.000109444 1218.13) (-0.000140635 -0.000140635 1189.79) (-0.000119415 -0.000119415 1154.18) (-6.66117e-05 -6.66118e-05 1115.94) (5.85516e-06 5.85516e-06 1086.5)
3800          (0.00058997 0.00058997 2361.5) (0.000388198 0.000388198 2360.55) (0.000137002 0.000137002 2357.02) (8.41556e-05 8.41556e-05 2351.3) (0.000368437 0.000368437 2343.35) (0.000279128 0.000279128 1711.54) (-0.000107296 -0.000107296 1216.95) (-0.000137924 -0.000137924 1189.56) (-0.000117297 -0.000117297 1155.15) (-6.5623e-05 -6.5623e-05 1118.18) (5.48841e-06 5.4884e-06 1089.7)