# Probe 0 (0.0015 0.0015 0)
# Probe 1 (0.0015 0.0015 0.01)
# Probe 2 (0.0015 0.0015 0.02)
# Probe 3 (0.0015 0.0015 0.03)
# Probe 4 (0.0015 0.0015 0.04)
# Probe 5 (0.0015 0.0015 0.05)
# Probe 6 (0.0015 0.0015 0.06)
# Probe 7 (0.0015 0.0015 0.07)
# Probe 8 (0.0015 0.0015 0.08)
# Probe 9 (0.0015 0.0015 0.09)
# Probe 10 (0.0015 0.0015 0.1)
# Time        0             1             2             3             4             5             6             7             8             9             10           
50            (-2.34552e-12 1.41528e-10 3.48807e-10) (7.1698e-11 1.41633e-10 8.5588e-10) (-6.28584e-11 -6.40506e-11 1.13671e-09) (7.15052e-11 6.79939e-11 1.4008e-09) (5.77957e-11 6.63226e-13 1.52089e-09) (-1.38425e-10 -8.6965e-12 2.49054e-09) (1.48101e-11 1.12054e-12 2.55336e-09) (-1.26034e-11 1.15199e-11 2.41141e-09) (1.37072e-11 -1.14152e-11 2.31574e-09) (-1.17383e-12 2.40973e-14 2.28952e-09) (-8.99516e-12 1.91541e-14 2.29496e-09)
100           (5.66724e-11 1.48202e-10 3.25446e-10) (6.58284e-11 -1.34729e-10 6.83754e-10) (1.29706e-10 -1.02791e-11 7.36677e-10) (1.40219e-10 3.92032e-13 1.86214e-09) (1.51276e-11 4.00882e-12 2.32069e-09) (7.36148e-11 -5.78863e-11 4.48458e-09) (-2.38064e-11 1.227e-12 4.58866e-09) (-1.72775e-13 -1.09257e-11 4.71124e-09) (8.76768e-13 -1.39397e-11 4.92305e-09) (-1.0959e-12 1.14408e-11 4.99531e-09) (2.58698e-12 -2.37766e-11 5.13384e-09)
150           (-2.77575e-13 1.01146e-11 2.54606e-10) (1.51096e-10 4.65769e-12 7.74482e-10) (-5.02489e-12 -6.22087e-11 1.01133e-09) (6.3993e-11 4.63904e-12 1.38797e-09) (-4.07151e-12 -2.31369e-12 1.88843e-09) (1.95833e-12 7.95323e-11 3.07401e-09) (-1.24209e-12 -1.48656e-13 2.89813e-09) (-2.2627e-11 1.04615e-11 2.82131e-09) (1.23077e-11 2.22422e-12 2.72774e-09) (1.01661e-11 2.34992e-13 2.61446e-09) (-1.23485e-11 -2.38268e-11 2.75356e-09)
200           (-1.3238e-10 6.85726e-11 4.58086e-11) (-7.60091e-11 -6.43408e-11 3.95737e-10) (8.24821e-12 7.07537e-11 7.14486e-10) (5.41051e-11 1.38295e-10 1.44541e-09) (7.86199e-11 1.42657e-10 1.44519e-09) (-2.7696e-13 -1.22236e-11 1.97058e-09) (-9.15976e-13 -1.14428e-11 1.84919e-09) (1.29515e-12 2.51029e-13 1.86634e-09) (2.27329e-11 1.0311e-11 1.71213e-09) (9.69982e-13 -2.18682e-11 1.64992e-09) (1.25764e-11 -1.21645e-11 1.68947e-09)
250           (-1.0733e-11 -1.35884e-10 6.38825e-11) (6.85813e-11 8.99421e-13 -5.21258e-11) (-7.28932e-11 1.98469e-11 -6.89381e-11) (8.73455e-11 -7.93924e-11 2.23232e-10) (-7.51925e-11 -2.14191e-12 1.05136e-09) (7.87624e-11 -9.2101e-13 2.96243e-09) (9.25452e-13 1.22095e-12 3.07023e-09) (1.01534e-11 1.1315e-11 3.03736e-09) (1.03758e-12 1.27627e-11 2.97494e-09) (-1.20872e-11 -1.21928e-12 3.06732e-09) (2.16992e-11 1.12505e-11 3.20349e-09)
300           (3.07757e-12 6.89338e-11 1.47506e-10) (-1.81457e-11 8.53616e-12 4.63291e-10) (5.66605e-11 -6.70563e-11 5.40615e-10) (5.96234e-11 6.99324e-11 2.43771e-10) (-7.35174e-11 -9.02891e-12 1.87442e-10) (-7.55547e-11 2.72903e-12 2.47019e-10) (1.08539e-11 1.07195e-11 2.51908e-10) (1.00205e-11 7.93486e-12 3.29797e-10) (-2.19505e-11 5.07153e-13 3.62213e-10) (-1.3006e-13 -1.21632e-11 4.6602e-10) (-1.24694e-11 -2.43918e-11 5.29519e-10)
350           (-9.44666e-12 -5.41797e-12 -6.71851e-12) (-6.17675e-11 1.54162e-10 3.72963e-10) (1.46886e-10 -6.80299e-11 8.30495e-10) (6.85783e-11 7.52137e-11 1.14813e-09) (-3.42713e-12 -1.29977e-10 1.82481e-09) (-5.4507e-11 -1.3828e-10 2.52914e-09) (-2.27092e-11 -1.12983e-11 2.29565e-09) (1.11039e-11 -1.13837e-11 2.28788e-09) (-1.38404e-11 -1.19313e-12 2.3749e-09) (-2.3903e-11 -2.38139e-11 2.46534e-09) (-2.26748e-11 -9.0771e-12 2.59326e-09)
400           (-7.71796e-11 6.87256e-11 6.55214e-11) (-7.42155e-11 -5.85122e-11 -8.98444e-12) (1.67862e-12 -1.28662e-10 7.2311e-11) (-5.60403e-12 8.00638e-12 3.35838e-10) (-6.23043e-11 -6.80894e-11 8.94071e-10) (-1.12339e-11 7.22579e-11 2.49516e-09) (1.01466e-11 -1.26823e-11 2.46938e-09) (1.04353e-12 1.13072e-11 2.45433e-09) (-9.15065e-12 -2.45429e-12 2.44645e-09) (-2.28311e-11 -6.90034e-14 2.47427e-09) (-1.02127e-11 -1.13737e-11 2.60899e-09)
450           (-7.92281e-11 -1.44598e-10 7.11391e-11) (-1.46688e-12 -1.34944e-10 2.83752e-10) (1.30896e-11 8.06272e-11 5.16205e-10) (7.50244e-11 1.66607e-11 1.05182e-09) (-7.59974e-11 -5.39152e-11 1.62774e-09) (1.90879e-11 -1.48414e-10 2.17299e-09) (-1.01762e-11 9.3378e-12 1.83038e-09) (-1.12239e-11 2.13967e-12 1.80642e-09) (2.19974e-12 1.17548e-11 1.91938e-09) (-4.08579e-13 -2.29146e-11 1.87884e-09) (-1.14426e-11 -2.2754e-11 1.92644e-09)
500           (1.4505e-10 -6.18085e-11 -4.7747e-11) (7.10415e-11 -6.51723e-11 8.75895e-11) (-4.41717e-12 -2.00406e-10 7.04441e-10) (8.29761e-11 7.42959e-12 1.14109e-09) (1.48192e-11 2.39044e-11 1.58834e-09) (-8.50405e-11 -1.39373e-10 2.56401e-09) (-2.04592e-11 -1.10031e-12 2.61144e-09) (1.13433e-11 1.23881e-11 2.62572e-09) (9.10884e-14 2.16584e-12 2.5295e-09) (-1.12716e-11 2.28838e-11 2.49099e-09) (-1.36103e-11 1.15615e-11 2.4578e-09)
550           (-6.74711e-11 8.12821e-12 3.96623e-11) (-7.3289e-11 7.43543e-11 1.07164e-10) (-1.44194e-11 1.54643e-11 3.33248e-10) (-8.47002e-12 -1.99623e-12 9.78047e-10) (6.29792e-11 -5.72374e-12 1.50091e-09) (1.57616e-11 -7.05536e-11 2.0765e-09) (-9.16968e-12 2.02778e-14 1.97402e-09) (1.14048e-11 -2.1778e-11 1.88069e-09) (1.47354e-11 -2.15716e-13 1.84897e-09) (-1.33097e-11 -1.15267e-12 1.87222e-09) (-1.03831e-11 -1.98041e-14 1.96883e-09)
600           (6.64922e-11 7.3779e-11 1.25377e-10) (1.31095e-10 -6.14458e-11 3.98213e-10) (-6.74262e-11 7.62764e-11 9.66996e-10) (5.25484e-12 8.35881e-11 1.73645e-09) (7.29605e-11 -1.37903e-10 2.14524e-09) (-3.82718e-12 -7.2387e-11 3.16189e-09) (2.51705e-11 1.3481e-11 2.94447e-09) (-7.06388e-14 -3.03685e-13 2.79665e-09) (-2.34839e-11 -3.46076e-13 2.70327e-09) (1.27391e-11 1.45497e-14 2.65463e-09) (-1.1463e-11 1.19485e-12 2.66977e-09)
650           (5.95188e-14 -1.06862e-11 1.59711e-10) (7.84284e-11 1.41097e-10 2.62595e-10) (6.91563e-11 7.81469e-11 4.2522e-10) (-6.42674e-11 -1.47989e-10 7.58919e-10) (7.02324e-11 6.39444e-11 1.04649e-09) (5.82763e-11 6.89677e-11 1.05083e-09) (1.89401e-13 -1.1193e-11 1.01863e-09) (-1.13573e-11 -2.35741e-11 1.05732e-09) (1.1548e-12 1.25658e-12 9.991e-10) (9.27051e-13 -8.94234e-12 1.08611e-09) (1.04989e-11 1.25966e-12 1.134e-09)
700           (-7.56716e-11 -5.70023e-12 -2.64512e-11) (-1.52294e-10 6.7234e-11 7.90479e-11) (-1.28207e-11 3.41885e-12 5.72102e-10) (-7.02473e-11 -2.17412e-10 1.16444e-09) (6.51583e-11 -6.49397e-11 1.24575e-09) (-6.75774e-11 -7.25133e-11 1.95611e-09) (1.14502e-12 9.39022e-12 1.52188e-09) (2.48319e-11 -1.28184e-12 1.59024e-09) (-1.24112e-12 -2.16356e-11 1.80896e-09) (-5.564e-14 -2.17174e-12 1.97305e-09) (1.15225e-11 -1.35532e-11 2.10641e-09)
750           (-7.90858e-12 -1.47775e-11 1.76972e-10) (-2.10264e-12 1.46894e-10 5.5826e-10) (2.14103e-12 5.11109e-11 9.08592e-10) (1.43812e-10 -5.81219e-11 1.07319e-09) (-2.10604e-10 1.43257e-10 1.66721e-09) (-2.16439e-10 -6.85312e-11 2.51364e-09) (-1.18955e-12 -1.14747e-11 2.48207e-09) (-2.03341e-11 -3.52939e-11 2.43868e-09) (-1.46809e-13 2.31701e-12 2.43337e-09) (-1.34533e-11 -3.62966e-15 2.32113e-09) (-1.23956e-11 2.25633e-11 2.30668e-09)
800           (7.47768e-11 6.30742e-11 4.0924e-11) (-2.26518e-10 -6.69001e-11 3.69021e-10) (7.76964e-11 7.19964e-11 5.43317e-10) (-1.96935e-12 1.45173e-12 8.92556e-10) (3.79267e-12 -7.34417e-11 7.74905e-10) (4.51298e-13 1.36764e-10 4.92724e-10) (-2.17991e-11 -2.27606e-11 4.78058e-10) (-1.22856e-11 -1.21541e-11 5.51963e-10) (-1.15212e-11 -1.24309e-11 6.20919e-10) (1.15239e-11 -1.24281e-11 6.16941e-10) (-1.94482e-15 2.38224e-12 6.74485e-10)
850           (1.4663e-10 -6.01619e-11 1.67038e-10) (1.22476e-10 5.21249e-11 3.06682e-10) (-6.43567e-11 7.62695e-11 -6.1756e-11) (1.48678e-10 1.61124e-12 -1.42661e-10) (6.25743e-11 -7.12729e-11 4.58607e-10) (-6.94688e-11 4.55627e-12 1.53234e-09) (1.14191e-12 2.15692e-11 1.36542e-09) (2.16006e-11 1.3129e-12 1.25559e-09) (1.1298e-11 -2.27639e-12 1.25917e-09) (1.24549e-11 -1.16099e-11 1.32149e-09) (-1.34487e-11 1.24626e-11 1.47878e-09)
900           (6.42105e-11 7.45308e-14 9.15328e-11) (6.97428e-11 1.42415e-10 8.85681e-11) (-1.38335e-10 -6.58997e-11 7.75693e-10) (-7.98693e-11 -1.07016e-11 1.23615e-09) (4.32933e-12 7.48258e-11 1.74826e-09) (-1.25625e-10 7.641e-11 2.9473e-09) (1.09215e-12 -1.16727e-11 2.8004e-09) (1.35833e-11 -2.91225e-13 2.63059e-09) (1.25308e-11 -2.40366e-11 2.5748e-09) (-1.22754e-13 -2.15163e-11 2.51709e-09) (-2.50209e-11 1.36478e-12 2.55141e-09)
950           (1.19715e-13 1.40815e-10 5.6578e-11) (6.66644e-11 1.53302e-11 3.63754e-10) (8.29637e-11 -5.9888e-11 6.52085e-10) (-7.79353e-11 -4.07576e-12 1.17169e-09) (-1.42699e-10 7.71825e-11 1.79429e-09) (-1.4408e-10 2.0909e-12 3.14215e-09) (9.01891e-13 1.12649e-11 2.95554e-09) (2.23027e-14 -1.01905e-11 2.87492e-09) (9.17125e-12 3.30383e-11 2.98729e-09) (2.294e-12 9.01635e-12 2.97546e-09) (-9.27807e-12 -2.2749e-11 3.08158e-09)
1000          (1.00462e-11 -9.98273e-12 1.16843e-10) (-6.64619e-11 1.51884e-12 4.42985e-10) (8.73118e-12 -2.26639e-12 4.12721e-10) (-1.19322e-11 -9.00032e-12 8.82009e-10) (7.45786e-11 1.40656e-10 1.25369e-09) (-7.11891e-11 6.29138e-11 2.32928e-09) (1.27197e-11 1.25973e-13 2.25769e-09) (1.26411e-11 -1.18091e-12 2.12324e-09) (-1.21474e-12 1.11356e-12 2.02565e-09) (2.59797e-13 -2.51101e-12 2.08622e-09) (-6.93633e-14 1.12562e-11 2.22076e-09)
1050          (8.03434e-11 -1.35465e-10 2.46823e-11) (6.71482e-11 6.1431e-12 2.69331e-10) (1.07822e-11 7.2526e-11 1.05848e-09) (1.23176e-11 2.81614e-12 1.16284e-09) (-6.23809e-11 8.42959e-11 1.35696e-09) (-1.14604e-11 2.47544e-12 2.83015e-09) (-2.27206e-11 1.24108e-11 2.59092e-09) (-1.28527e-11 1.14017e-11 2.52601e-09) (-1.26464e-11 1.21128e-12 2.53848e-09) (-6.85664e-13 -1.23571e-11 2.57604e-09) (2.2528e-13 2.85416e-14 2.53888e-09)
1100          (-1.54855e-13 4.77971e-12 1.54911e-10) (-2.82254e-12 1.38636e-13 5.23309e-10) (1.36781e-10 1.27064e-10 9.32895e-10) (-5.80375e-12 -7.26143e-11 1.50136e-09) (1.08828e-11 6.3391e-11 1.34184e-09) (7.76063e-11 -6.77282e-12 1.91621e-09) (-4.57031e-14 1.10038e-11 1.64479e-09) (-1.1522e-11 2.36537e-11 1.61362e-09) (-2.07781e-13 3.05417e-13 1.69697e-09) (3.07873e-14 3.04342e-12 1.79225e-09) (-1.09685e-13 1.25059e-11 1.95214e-09)
1150          (2.87037e-10 6.40058e-11 3.86259e-10) (-1.41266e-10 1.42595e-10 7.24962e-10) (-7.76285e-11 -4.99881e-12 1.1084e-09) (-1.37657e-10 -7.57042e-12 1.62387e-09) (-5.80651e-11 5.70214e-13 2.41137e-09) (-6.86675e-12 -1.14039e-11 3.28386e-09) (1.22783e-11 3.39031e-11 3.13492e-09) (1.14966e-11 1.05085e-12 3.20341e-09) (2.2721e-12 -9.10413e-12 3.30044e-09) (-2.11216e-12 1.10398e-11 3.42494e-09) (1.84351e-13 -1.23648e-11 3.58542e-09)
1200          (-7.11814e-11 -6.34873e-11 1.72674e-11) (-6.58434e-12 1.49784e-10 2.69845e-10) (9.89192e-12 -6.8363e-11 6.56395e-10) (2.75434e-12 2.88055e-12 1.23294e-09) (-6.37275e-11 5.64159e-11 1.02673e-09) (9.64611e-12 -7.6504e-11 1.197e-09) (-1.10952e-12 3.13873e-13 1.10933e-09) (-1.24193e-11 1.19081e-11 1.22109e-09) (-1.26567e-11 -3.40748e-11 1.2837e-09) (-1.18113e-14 -1.23399e-11 1.34168e-09) (-2.25593e-11 -1.15735e-11 1.35926e-09)
1250          (-1.10854e-10 8.74537e-14 -8.47311e-11) (1.97037e-11 7.30472e-11 -3.61512e-10) (-2.34868e-13 7.60938e-11 -3.00265e-10) (-4.33573e-11 1.03378e-10 -1.98917e-10) (-3.39113e-11 -6.57767e-11 -1.56839e-10) (7.02577e-11 -6.68894e-11 -3.25301e-10) (1.58817e-11 3.3895e-11 -5.57215e-10) (7.6721e-12 4.44784e-12 -6.05602e-10) (1.25801e-11 1.35361e-12 -5.91408e-10) (5.89505e-12 2.04225e-11 -4.98884e-10) (1.12828e-11 -5.58636e-12 -5.05181e-10)
1300          (1.46299e-10 -7.13537e-11 7.3748e-11) (-2.17675e-12 1.36285e-11 3.99128e-10) (2.63632e-12 1.38221e-10 5.60761e-10) (6.92354e-11 5.27094e-12 8.51024e-10) (1.2823e-11 -1.31808e-10 1.86042e-09) (3.05597e-12 -9.08054e-12 4.08901e-09) (-1.14546e-12 -2.29113e-12 4.21704e-09) (-1.13731e-11 -1.37439e-12 4.23163e-09) (5.39032e-14 -8.83641e-14 4.26635e-09) (-1.11031e-11 -1.35478e-11 4.24282e-09) (2.03272e-11 -3.07113e-14 4.34555e-09)
1350          (-7.03411e-11 1.4053e-10 -8.42259e-11) (-7.49684e-11 1.40238e-10 -3.30464e-10) (-9.07826e-12 1.50491e-10 -5.63178e-11) (-6.39489e-11 -2.96805e-12 8.8668e-10) (1.42653e-10 8.56913e-11 9.94612e-10) (1.08605e-11 -6.68062e-12 2.98921e-09) (2.46859e-12 1.14292e-11 2.85964e-09) (5.35401e-14 2.28344e-11 2.69227e-09) (1.15175e-11 -1.88668e-13 2.5526e-09) (-1.13316e-11 1.21591e-11 2.50182e-09) (5.08931e-14 8.15527e-14 2.52571e-09)
1400          (1.70639e-12 -7.95548e-11 1.73111e-11) (7.09089e-11 -6.52504e-11 1.69747e-10) (-2.45981e-12 6.59303e-11 1.00609e-09) (4.40742e-12 -6.95054e-11 1.29063e-09) (-3.00578e-12 -1.62238e-12 1.38372e-09) (7.43804e-11 -5.50383e-12 3.24071e-09) (9.56148e-13 -7.21051e-15 3.19934e-09) (1.37255e-11 1.02943e-11 3.14637e-09) (-2.30726e-11 1.12933e-11 2.9797e-09) (-1.21228e-13 9.52836e-14 3.00873e-09) (1.16009e-11 -1.15469e-11 3.0607e-09)
1450          (3.21489e-12 -7.33433e-11 1.49156e-10) (-1.39034e-10 7.93341e-11 4.27041e-10) (6.08545e-13 7.09565e-11 1.0609e-09) (-7.57358e-13 1.86664e-11 1.0912e-09) (-8.87021e-11 -6.77913e-11 1.4046e-09) (-3.70088e-12 -6.58656e-11 2.51076e-09) (3.51587e-13 -1.25403e-11 2.48549e-09) (5.27112e-14 -1.09985e-12 2.31426e-09) (-1.36115e-12 2.22809e-12 2.35948e-09) (-1.13088e-11 -2.42556e-11 2.41428e-09) (-1.24064e-11 -9.25659e-15 2.53727e-09)
1500          (1.82087e-12 -1.48689e-12 1.11538e-10) (-2.08928e-10 -5.45274e-12 3.94219e-10) (-5.94975e-12 1.39672e-10 6.68712e-10) (7.45726e-13 6.82462e-11 1.2063e-09) (-8.36431e-11 -6.48439e-13 8.91726e-10) (4.51244e-12 -8.46079e-11 1.83792e-09) (-2.14508e-11 -2.06184e-11 1.77126e-09) (9.23364e-14 9.24722e-12 1.61485e-09) (-2.16562e-11 -1.13673e-11 1.58766e-09) (-1.14883e-12 9.98226e-13 1.57256e-09) (1.00131e-11 1.09655e-13 1.58645e-09)
1550          (-4.606e-11 -4.00647e-11 5.29555e-11) (7.76842e-11 4.17253e-12 1.21591e-10) (9.61515e-11 -7.3527e-11 4.12185e-11) (-2.87273e-12 -7.08396e-12 -2.32392e-10) (-3.15461e-11 -1.29267e-10 -3.4043e-10) (-5.09992e-11 -3.50058e-11 -1.6613e-10) (-3.29604e-12 -1.15207e-12 6.49908e-11) (7.04064e-12 1.75591e-14 -2.56184e-11) (1.22934e-12 -6.45877e-12 -3.73583e-11) (-5.75103e-12 -3.50016e-12 -1.13452e-10) (-5.8518e-12 -4.89183e-14 -9.60651e-11)
1600          (-6.33751e-12 -7.17433e-11 3.72125e-10) (-7.26966e-11 1.12648e-12 8.10843e-10) (-1.00526e-11 -6.74722e-11 1.25374e-09) (7.0325e-11 7.68598e-11 1.5601e-09) (7.28237e-11 1.49869e-12 2.05097e-09) (5.60859e-12 2.4452e-12 3.64788e-09) (-1.11309e-11 1.03367e-11 3.51182e-09) (1.26484e-11 -1.02504e-11 3.48702e-09) (1.07561e-13 -2.18778e-11 3.59138e-09) (1.1392e-11 -1.02728e-11 3.6522e-09) (9.9846e-13 -2.17995e-12 3.74198e-09)
1650          (-5.71072e-11 -7.97621e-11 -3.03642e-11) (-2.69697e-12 2.04327e-11 1.84274e-10) (1.43255e-10 7.4405e-11 6.2951e-10) (1.45992e-10 -6.49703e-11 1.17428e-09) (3.42465e-12 6.428e-11 1.79583e-09) (7.28891e-12 -8.89811e-13 2.21563e-09) (2.13571e-11 -1.35527e-11 2.17252e-09) (1.4035e-11 1.4839e-11 2.21532e-09) (-1.25957e-11 -8.08896e-13 2.25271e-09) (-2.11822e-13 -1.04267e-11 2.24181e-09) (1.01447e-11 1.37363e-11 2.23525e-09)
1700          (-5.56859e-11 4.59596e-12 6.61998e-11) (-1.58514e-11 1.31229e-10 2.29329e-11) (2.03861e-10 -2.00026e-11 1.08244e-10) (-6.7826e-11 3.83508e-13 4.0218e-10) (-6.19238e-11 1.20875e-11 4.90317e-10) (-1.27189e-10 8.12667e-11 9.80238e-10) (2.83519e-14 -1.13536e-11 8.84363e-10) (-9.29858e-13 -9.90944e-13 7.3643e-10) (1.35246e-11 -2.43332e-13 7.19855e-10) (-2.22629e-11 -1.26146e-12 8.11775e-10) (-1.01632e-12 -1.00724e-11 8.9658e-10)
1750          (-4.28143e-12 1.29958e-11 1.04448e-10) (-7.86483e-11 1.49779e-10 1.86193e-10) (-3.96809e-12 -6.93715e-11 -1.42458e-12) (-6.75266e-11 7.2468e-11 7.59073e-10) (-8.49164e-11 6.13394e-11 1.11553e-09) (6.41427e-11 5.82991e-11 1.95665e-09) (7.75536e-14 2.21546e-12 2.05091e-09) (-1.10984e-13 2.16039e-11 1.92612e-09) (-2.22803e-12 1.00946e-11 1.88868e-09) (1.81946e-13 -9.31561e-12 1.79312e-09) (-1.29009e-11 2.50616e-11 1.79647e-09)
1800          (-1.75507e-11 7.34342e-11 -1.2032e-12) (7.11554e-11 -2.14963e-12 1.87637e-10) (-6.24629e-11 -1.78138e-11 3.11937e-10) (-6.2853e-11 5.09546e-12 9.14859e-10) (-9.7994e-12 1.07146e-11 7.57159e-10) (-1.39283e-10 -1.15987e-11 1.55094e-09) (1.12464e-11 -1.03293e-11 1.52517e-09) (1.26431e-11 -1.35207e-11 1.51395e-09) (-1.04411e-11 -1.14617e-11 1.44949e-09) (-1.12086e-14 -1.96515e-14 1.48494e-09) (2.13092e-12 2.25192e-11 1.60377e-09)
1850          (-2.22145e-12 7.85418e-11 9.51448e-11) (-1.3801e-10 -6.09827e-11 4.03126e-10) (2.98462e-12 6.65492e-11 1.05492e-09) (-7.4757e-11 5.839e-12 1.38408e-09) (-6.72592e-11 -1.35478e-12 1.52383e-09) (-8.28825e-11 -7.27616e-11 3.22108e-09) (2.38411e-11 -1.01651e-12 3.1028e-09) (4.14146e-14 1.03348e-11 3.05142e-09) (-1.22894e-11 -1.0167e-11 3.07765e-09) (-1.15369e-11 -1.36073e-11 3.20138e-09) (2.28679e-11 1.24609e-11 3.2446e-09)
1900          (1.07254e-11 -1.35498e-10 1.63586e-11) (7.22233e-12 8.11407e-11 -1.6979e-10) (-1.27166e-11 1.42343e-10 2.42959e-10) (7.90455e-11 -1.51575e-10 9.95229e-10) (6.05358e-11 -7.74689e-11 1.54133e-09) (8.49698e-13 -5.8099e-11 2.12324e-09) (1.13364e-11 2.37923e-11 2.15015e-09) (-2.13437e-11 -1.43386e-15 2.1919e-09) (1.1307e-11 1.13799e-11 2.26503e-09) (1.27241e-11 2.15879e-11 2.28753e-09) (-3.30961e-11 1.27527e-13 2.35013e-09)
1950          (-8.33596e-11 1.76667e-11 -1.50468e-10) (3.90192e-11 -1.9332e-11 -3.52061e-10) (-2.08042e-12 5.70565e-12 -1.59621e-10) (1.05424e-10 -7.52395e-11 -1.64126e-10) (3.90861e-11 -1.39057e-12 -1.15954e-10) (3.93698e-11 3.39175e-12 2.5969e-10) (2.24848e-12 -2.14192e-11 2.69994e-10) (-1.13762e-11 -2.05985e-11 1.48811e-10) (1.70935e-11 2.14194e-11 1.03429e-10) (-5.66076e-12 1.71383e-11 2.30902e-11) (1.92332e-11 -1.70328e-11 6.90222e-11)
2000          (7.28835e-11 -8.77115e-12 1.28912e-10) (6.51859e-11 -6.7793e-11 2.91478e-10) (-5.43963e-11 4.01232e-12 9.91897e-10) (7.61756e-11 2.07012e-12 1.62426e-09) (4.38045e-15 8.30775e-11 1.87987e-09) (-6.52869e-11 1.64167e-12 3.55028e-09) (1.02297e-11 2.38111e-13 3.23383e-09) (3.11643e-12 1.05355e-11 3.32768e-09) (1.01535e-11 9.35656e-12 3.36405e-09) (1.25053e-12 1.18139e-13 3.48125e-09) (-1.13032e-11 -1.2344e-12 3.54704e-09)
2050          (-6.10118e-12 -7.9124e-11 2.39426e-10) (-9.23035e-11 -1.48386e-10 6.27859e-10) (3.70995e-12 1.803e-12 1.56545e-09) (-5.81386e-11 6.83765e-11 2.0636e-09) (1.35908e-10 2.69295e-13 1.73658e-09) (7.71439e-11 -7.59611e-11 2.33692e-09) (1.10939e-12 1.04303e-11 2.23681e-09) (1.13389e-12 -1.11856e-11 2.20433e-09) (-1.24148e-11 1.00519e-11 2.30078e-09) (1.02493e-11 -2.36798e-11 2.37673e-09) (2.46139e-12 -2.04975e-11 2.46712e-09)
2100          (-1.15812e-11 -1.32401e-10 2.5271e-10) (3.77318e-14 1.56981e-10 5.52371e-10) (8.26674e-11 -6.43786e-12 6.85294e-10) (7.4807e-11 6.7616e-11 1.07404e-09) (-4.29411e-12 9.43083e-12 8.13276e-10) (-7.55102e-11 -1.40053e-10 1.56592e-09) (-3.25624e-12 2.20469e-12 1.55147e-09) (2.15452e-11 -1.22862e-11 1.37577e-09) (-2.42091e-12 -1.02951e-11 1.28905e-09) (1.25908e-11 2.14761e-11 1.29076e-09) (1.24967e-11 -1.14126e-11 1.43158e-09)
2150          (-4.4966e-11 -9.68771e-11 6.02304e-11) (1.01569e-10 -6.6734e-11 7.2558e-11) (-3.90166e-11 6.28375e-12 -1.56107e-11) (-6.7185e-12 1.14008e-12 -5.02507e-10) (-2.03536e-12 1.01382e-11 -3.45686e-10) (5.50353e-12 5.11356e-12 2.59234e-10) (-9.29815e-12 1.86048e-13 3.6767e-10) (8.88827e-13 -2.23654e-12 2.92413e-10) (-1.12053e-11 1.16472e-11 3.90668e-10) (-2.38501e-11 -4.53165e-11 4.57111e-10) (2.26449e-11 1.13468e-11 6.3863e-10)
2200          (1.54781e-11 -1.5789e-10 2.26527e-10) (5.10771e-11 1.17724e-11 3.67542e-10) (-5.51394e-12 7.164e-11 6.78278e-10) (1.50674e-10 -4.50192e-12 1.25484e-09) (1.44815e-10 -2.16432e-12 1.82573e-09) (1.35707e-12 2.73989e-12 3.19116e-09) (-2.57539e-12 1.22903e-11 2.93391e-09) (-1.35453e-12 -2.08024e-11 3.00158e-09) (1.26068e-11 1.26639e-11 3.098e-09) (1.27345e-11 1.22746e-11 3.0997e-09) (-2.27176e-11 -2.16936e-11 3.18787e-09)
2250          (1.36989e-10 1.34088e-10 5.72004e-11) (7.45464e-11 1.57071e-10 3.47807e-10) (1.45827e-10 -1.54484e-11 8.66147e-10) (-7.79648e-11 -3.35961e-12 1.29705e-09) (5.83786e-11 1.47724e-10 1.40003e-09) (-5.41933e-12 1.16611e-13 2.50779e-09) (2.49753e-11 6.34802e-13 2.5832e-09) (2.21291e-11 -2.04002e-11 2.53547e-09) (-1.273e-12 -4.27103e-13 2.54555e-09) (-1.2981e-12 1.07202e-12 2.61126e-09) (-2.11983e-13 2.4567e-11 2.62379e-09)
2300          (-7.78595e-12 -1.24218e-12 9.60801e-11) (-7.34694e-11 1.38889e-10 4.03602e-10) (-7.68202e-12 -1.42488e-10 9.06604e-10) (-7.07742e-11 1.46197e-10 1.84914e-09) (-7.82808e-11 1.49992e-10 2.11924e-09) (5.86869e-11 -6.80116e-11 3.05141e-09) (-1.02047e-13 9.20749e-13 2.95474e-09) (-5.27726e-13 -1.42178e-13 3.0019e-09) (1.491e-12 -1.06428e-11 3.10109e-09) (9.80291e-12 -1.35638e-11 3.18254e-09) (-1.25942e-11 -1.19509e-11 3.17026e-09)
2350          (-3.41008e-12 6.65025e-11 -3.978e-12) (2.81069e-12 4.2849e-12 -1.25714e-10) (-1.28332e-11 -1.44239e-10 -1.95459e-10) (2.77955e-12 2.24044e-12 -3.57593e-10) (-4.88848e-12 6.58097e-13 -5.65641e-10) (-1.07628e-11 6.86781e-11 -4.72627e-11) (1.03097e-11 1.15547e-11 1.32694e-10) (1.70481e-13 -2.29676e-11 1.01682e-10) (1.12563e-11 2.24929e-11 1.61874e-10) (5.18929e-13 -1.08344e-12 1.10212e-10) (1.12238e-11 1.33412e-12 1.68573e-10)
2400          (-6.27197e-12 -1.4244e-10 -6.88813e-11) (6.3494e-11 9.15502e-11 5.23752e-11) (1.1732e-10 7.36561e-12 4.41041e-10) (-1.26192e-11 1.58338e-11 3.34985e-10) (-1.55479e-10 -1.53174e-10 1.12874e-09) (-1.37273e-10 -5.23763e-12 1.81175e-09) (2.30052e-11 -7.94768e-12 1.68102e-09) (-9.06124e-12 -9.74421e-13 1.62901e-09) (-1.60891e-11 -1.35641e-11 1.71956e-09) (2.38844e-11 -1.05474e-12 1.74032e-09) (-7.16556e-15 -1.04011e-12 1.76521e-09)
2450          (7.36828e-11 1.03226e-13 2.75382e-10) (-2.45286e-11 -4.26199e-12 6.79127e-10) (-1.4513e-10 -1.36942e-10 1.65325e-09) (1.40623e-11 -6.0816e-11 2.57455e-09) (-5.2803e-11 8.34325e-11 2.65529e-09) (-2.50293e-12 -1.68076e-11 3.77489e-09) (1.07439e-12 -1.14599e-13 3.45354e-09) (1.14364e-11 2.23845e-12 3.4619e-09) (7.64252e-12 -2.07435e-12 3.56778e-09) (-1.35218e-11 1.12926e-11 3.63972e-09) (2.12744e-12 9.98702e-13 3.70741e-09)
2500          (-7.11694e-11 6.19727e-11 9.02738e-11) (2.75122e-12 1.41331e-10 4.69898e-10) (-5.77861e-12 6.55621e-11 1.08096e-09) (-6.91903e-11 -6.07838e-11 1.17144e-09) (-6.19639e-11 1.85139e-11 1.64649e-09) (6.5954e-11 -7.46338e-11 2.71745e-09) (-2.2373e-12 -1.03926e-11 2.4809e-09) (-1.36296e-11 -2.2789e-11 2.50411e-09) (-1.77212e-13 1.1148e-11 2.42488e-09) (-1.25609e-11 9.18879e-12 2.51261e-09) (-1.26493e-11 1.27665e-12 2.52868e-09)
2550          (2.06043e-10 6.67877e-11 1.41853e-11) (5.63586e-11 6.23135e-11 -9.39142e-11) (-1.55866e-12 -1.46417e-10 -7.57745e-12) (-1.48462e-10 5.8403e-11 2.67123e-10) (-4.98779e-13 -6.25098e-11 3.83339e-10) (5.88888e-11 -7.98149e-11 6.68501e-10) (1.0341e-12 -2.35224e-11 5.33964e-10) (9.10224e-13 1.12978e-11 5.3725e-10) (-9.30715e-13 1.04325e-11 5.41929e-10) (-1.00897e-11 -1.46165e-11 5.64606e-10) (1.11587e-11 9.21105e-12 6.37023e-10)
2600          (-2.46897e-13 1.38797e-10 1.8419e-10) (-6.69183e-11 -7.1116e-11 3.4384e-10) (-1.44081e-10 7.64906e-11 4.8468e-10) (-7.32079e-11 -7.42827e-11 1.07964e-09) (-3.11388e-12 6.93715e-11 1.9895e-09) (-3.05775e-12 -1.55247e-10 2.81693e-09) (1.04741e-11 -1.13099e-11 2.76446e-09) (1.02988e-11 -8.6203e-13 2.68154e-09) (1.11579e-11 -2.04478e-11 2.67098e-09) (9.61854e-14 1.47458e-11 2.61056e-09) (-1.07544e-12 -9.04812e-12 2.70203e-09)
2650          (-1.45843e-10 7.06739e-11 1.36353e-10) (-9.09273e-11 3.47098e-12 3.68126e-10) (5.07408e-12 -7.71763e-11 5.97248e-10) (-6.9053e-11 -1.47654e-10 7.59276e-10) (5.89103e-11 1.52111e-11 5.56882e-10) (6.34909e-11 7.48117e-11 6.04307e-10) (1.26249e-11 -1.05759e-12 3.29291e-10) (-9.14628e-12 -1.15488e-11 3.88477e-10) (1.13447e-11 1.14678e-11 5.1028e-10) (9.50141e-13 -1.10066e-11 6.05086e-10) (1.44166e-12 -1.09258e-11 7.62758e-10)
2700          (-8.00701e-11 -7.20445e-11 -4.21946e-11) (-1.42893e-10 1.3414e-12 -1.26554e-10) (-8.77614e-12 6.77632e-11 -2.969e-10) (6.49969e-11 8.14884e-12 1.65236e-10) (1.48007e-10 6.71326e-11 5.19651e-10) (8.45172e-12 1.40296e-11 1.85818e-09) (1.1538e-11 1.66687e-13 2.06107e-09) (1.12446e-11 1.30314e-12 1.87242e-09) (-1.25497e-11 -1.25795e-11 1.78975e-09) (2.16536e-11 -2.11225e-12 1.82495e-09) (1.13541e-11 -1.11623e-11 1.88511e-09)
2750          (7.58793e-12 -2.48542e-12 2.21324e-10) (-6.27815e-11 -6.54065e-11 5.586e-10) (6.54407e-11 1.36976e-11 1.0855e-09) (8.56486e-11 -1.40537e-11 1.2689e-09) (-8.11196e-11 1.48616e-10 1.6818e-09) (1.50306e-12 -1.25697e-11 2.81283e-09) (-1.25441e-11 1.1069e-12 2.74453e-09) (9.69061e-13 -1.23116e-11 2.75313e-09) (1.10576e-13 1.24708e-11 2.7092e-09) (-9.14615e-12 1.11425e-11 2.81806e-09) (-1.07244e-12 7.97537e-12 2.90687e-09)
2800          (6.93381e-11 1.26377e-10 7.49369e-11) (1.33717e-10 7.24523e-11 2.6597e-10) (-1.22166e-10 -5.60513e-11 2.47657e-10) (-7.10269e-11 -1.20127e-12 4.2333e-10) (8.55316e-11 7.03478e-11 1.04641e-09) (-7.01004e-11 1.6575e-12 1.95915e-09) (-8.95516e-13 1.1253e-11 1.78886e-09) (-1.93335e-11 1.559e-12 1.7721e-09) (7.69023e-14 8.31528e-13 1.89491e-09) (-1.26714e-11 2.14434e-11 2.00913e-09) (3.41346e-11 -9.06705e-12 2.01349e-09)
2850          (7.34861e-11 -6.7562e-11 -5.27767e-11) (1.29527e-10 1.36667e-11 -1.2241e-10) (7.05853e-11 -1.07144e-11 4.35449e-10) (7.2844e-11 -9.75278e-12 3.20967e-10) (-5.82999e-11 -7.01601e-11 6.45011e-10) (-1.34835e-10 7.38597e-11 2.063e-09) (2.17061e-12 1.14928e-11 2.08759e-09) (1.23355e-11 -1.27223e-11 1.9553e-09) (1.42846e-13 -1.14723e-11 1.98037e-09) (-8.0609e-13 -1.02867e-11 2.00436e-09) (-2.28804e-11 -1.00775e-11 2.05993e-09)
2900          (-7.03604e-11 2.37559e-12 -9.75443e-12) (-6.1398e-12 -2.66413e-12 2.06007e-10) (-8.3526e-11 -1.38016e-10 9.51042e-10) (-7.04851e-11 6.33762e-11 1.4607e-09) (-6.21849e-11 -2.56632e-12 1.52727e-09) (-2.96949e-10 6.84252e-11 2.59314e-09) (2.04092e-11 -1.06016e-12 2.60189e-09) (-3.37773e-13 4.12243e-13 2.62033e-09) (-1.24672e-12 -1.14562e-11 2.63521e-09) (-2.29399e-12 -6.79373e-14 2.67876e-09) (1.01346e-11 2.28052e-11 2.70975e-09)
2950          (7.05219e-11 5.76539e-13 1.80221e-10) (-5.56731e-12 8.20414e-11 8.15548e-10) (3.17013e-12 8.83739e-12 1.37603e-09) (-8.59834e-11 -1.212e-11 1.31984e-09) (7.2714e-11 5.00466e-12 1.50492e-09) (-1.38985e-10 -6.75853e-11 1.66686e-09) (1.12103e-12 1.05286e-11 1.67963e-09) (-1.27735e-13 -1.13875e-11 1.58341e-09) (8.96488e-12 1.15594e-11 1.45794e-09) (-1.23865e-11 9.38707e-13 1.40641e-09) (-2.11928e-12 7.49162e-14 1.52295e-09)
3000          (-3.9543e-12 -7.83501e-11 2.35647e-10) (-1.04543e-11 -6.6254e-11 6.96746e-10) (6.89553e-11 2.38308e-12 1.32964e-09) (-4.22575e-13 -3.30312e-12 1.71195e-09) (-1.39406e-12 -2.12245e-10 2.07664e-09) (7.38636e-12 1.44969e-10 2.66912e-09) (1.15469e-11 -8.92602e-12 2.64567e-09) (-3.54801e-11 -2.39212e-11 2.66197e-09) (-1.2441e-11 -1.14137e-11 2.71029e-09) (-1.02209e-11 -1.38045e-11 2.70217e-09) (1.15432e-11 -1.1366e-11 2.77691e-09)
3050          (-8.19598e-11 -1.47019e-10 -5.0271e-12) (-7.69727e-11 -7.02446e-11 -4.69512e-11) (8.25337e-11 6.77558e-11 2.86629e-10) (6.60699e-11 3.27606e-12 1.02296e-09) (-7.3161e-11 -6.54745e-11 1.39465e-09) (7.4467e-11 -6.2544e-11 2.25643e-09) (-4.04301e-14 -3.18692e-11 2.21753e-09) (3.88843e-13 9.76194e-13 2.03471e-09) (1.15208e-11 1.14884e-11 1.93729e-09) (1.13013e-11 3.60535e-14 2.04412e-09) (-1.23489e-11 1.02826e-12 2.15488e-09)
3100          (-3.09282e-12 7.30892e-11 9.47306e-11) (6.51382e-12 1.33798e-10 1.10893e-10) (1.49016e-12 7.50508e-11 2.24751e-10) (1.38623e-10 -7.56933e-11 5.36251e-10) (7.06196e-11 1.23708e-11 3.94709e-10) (-6.66022e-11 -5.78391e-11 1.55309e-09) (2.38745e-11 1.05419e-11 1.53001e-09) (2.1671e-11 2.37596e-11 1.45961e-09) (-2.51486e-11 9.20713e-13 1.49342e-09) (1.15923e-11 -1.2477e-11 1.5805e-09) (-8.62942e-13 -1.12809e-11 1.6016e-09)
3150          (-1.45839e-11 6.75908e-12 -3.88069e-12) (5.94345e-11 2.86004e-12 2.749e-10) (8.57671e-11 -7.11859e-11 6.90746e-10) (-6.90277e-11 -7.7542e-11 1.1923e-09) (6.97853e-11 -5.89688e-11 1.41381e-09) (7.479e-11 -6.64572e-11 2.83138e-09) (1.03804e-11 -2.49344e-11 2.55933e-09) (-1.25789e-11 -9.77565e-13 2.57581e-09) (2.39973e-11 -2.06309e-13 2.6882e-09) (-6.79899e-14 1.04569e-11 2.8545e-09) (-1.14808e-11 -5.87837e-14 2.95377e-09)
3200          (-9.18951e-11 -1.36412e-11 3.1444e-11) (1.30038e-10 -5.72869e-11 3.28411e-10) (-7.1732e-11 -9.41848e-12 7.57118e-10) (7.67478e-11 6.27078e-11 1.02715e-09) (5.45105e-11 -2.98837e-13 1.91492e-09) (-6.74972e-12 -7.7588e-11 3.60035e-09) (1.37089e-11 9.91188e-13 3.39754e-09) (-2.39806e-11 2.03208e-11 3.31965e-09) (9.18695e-12 -1.13617e-11 3.32336e-09) (1.26741e-11 1.76251e-14 3.29209e-09) (-2.28135e-12 1.03781e-11 3.28243e-09)
3250          (5.09e-12 -1.31165e-10 2.5314e-12) (8.1578e-11 6.24622e-12 2.00969e-10) (1.45597e-10 -2.74027e-12 5.84287e-10) (6.29245e-12 -3.53013e-13 8.51903e-10) (-6.38806e-11 -6.83839e-11 1.47925e-09) (-6.04003e-12 1.42528e-10 2.4178e-09) (-1.2551e-11 -2.33126e-11 2.22547e-09) (1.1365e-11 1.12868e-11 2.05615e-09) (-1.33341e-12 1.26374e-11 2.16852e-09) (9.99317e-13 1.14455e-11 2.37489e-09) (2.92295e-13 -2.38243e-11 2.50249e-09)
3300          (7.05148e-11 1.44365e-10 2.85237e-11) (-8.30215e-11 5.02821e-13 3.75681e-10) (-4.66773e-13 7.06163e-11 1.01509e-09) (1.71125e-12 2.72105e-12 1.22869e-09) (-1.33216e-11 -9.34961e-12 1.51674e-09) (2.08326e-10 7.13608e-11 2.57546e-09) (-2.01734e-12 1.43341e-12 2.64452e-09) (-1.13902e-11 1.08785e-12 2.5453e-09) (-1.00992e-11 2.17009e-13 2.38913e-09) (-2.3766e-11 -1.05619e-12 2.36386e-09) (-1.35618e-11 -1.25639e-11 2.3791e-09)
3350          (6.62971e-11 7.25957e-12 2.91793e-11) (6.86819e-11 -1.44265e-10 1.19254e-10) (-2.18012e-11 -7.2153e-11 7.82575e-10) (1.79692e-12 1.37877e-10 1.33342e-09) (-5.23992e-12 -1.41113e-10 2.01311e-09) (-9.06089e-12 -2.49906e-12 3.28157e-09) (2.26876e-11 -3.36175e-11 3.18235e-09) (-7.73663e-13 2.26886e-11 3.05887e-09) (1.10486e-13 -1.1458e-11 2.97094e-09) (-1.9625e-12 -1.12828e-11 2.84079e-09) (-1.14443e-11 1.3591e-13 2.90397e-09)