# Probe 0 (0 0 0)
# Time        0            
14            1000         
28            904.737      
42            846.926      
56            803.909      
70            770.106      
84            742.578      
98            719.585      
112           700.014      
126           683.107      
140           668.33       
154           655.288      
168           643.686      
182           633.295      
196           623.933      
210           615.457      
224           607.748      
238           600.711      
252           594.266      
266           588.343      
280           582.887      
294           577.848      
308           573.185      
322           568.859      
336           564.841      
350           561.101      
364           557.615      
378           554.361      
392           551.32       
406           548.475      
420           545.81       
434           543.312      
448           540.967      
462           538.764      
476           536.693      
490           534.745      
504           532.911      
518           531.183      
532           529.554      
546           528.017      
560           526.568      
574           525.199      
588           523.906      
602           522.684      
616           521.528      
630           520.436      
644           519.402      
658           518.423      
672           517.496      
686           516.619      
700           515.788      
714           515          
728           514.253      
742           513.545      
756           512.874      
770           512.237      
784           511.633      
798           511.06       
812           510.516      
826           509.999      
840           509.509      
854           509.043      
868           508.601      
882           508.181      
896           507.782      
910           507.403      
924           507.042      
938           506.7        
952           506.375      
966           506.065      
980           505.771      
994           505.492      
1008          505.226      
1022          504.974      
1036          504.733      
1050          504.505      
1064          504.287      
1078          504.081      
1092          503.884      
1106          503.697      
1120          503.519      
1134          503.35       
1148          503.189      
1162          503.036      
1176          502.89       
1190          502.751      
1204          502.619      
1218          502.493      
1232          502.374      
1246          502.26       
1260          502.152      
1274          502.049      
1288          501.951      
1302          501.857      
1316          501.768      
1330          501.684      
1344          501.603      
1358          501.526      
1372          501.453      
1386          501.384      
1400          501.318      
1414          501.255      
1428          501.195      
1442          501.138      
1456          501.084      
1470          501.032      
1484          500.983      
1498          500.936      
1512          500.891      
1526          500.848      
1540          500.808      
1554          500.769      
1568          500.733      
1582          500.698      
1596          500.664      
1610          500.633      
1624          500.603      
1638          500.574      
1652          500.547      
1666          500.52       
1680          500.496      
1694          500.472      
1708          500.45       
1722          500.428      
1736          500.408      
1750          500.388      
1764          500.37       
1778          500.352      
1792          500.335      
1806          500.319      
1820          500.304      
1834          500.29       
1848          500.276      
1862          500.263      
1876          500.25       
1890          500.238      
1904          500.227      
1918          500.216      
1932          500.206      
1946          500.196      
1960          500.187      
1974          500.178      
1988          500.169      
2002          500.161      
2016          500.154      
2030          500.146      
2044          500.139      
2058          500.133      
2072          500.126      
2086          500.12       
2100          500.115      
2114          500.109      
2128          500.104      
2142          500.099      
2156          500.094      
2170          500.09       
2184          500.086      
2198          500.081      
2212          500.078      
2226          500.074      
2240          500.07       
2254          500.067      
2268          500.064      
2282          500.061      
2296          500.058      
2310          500.055      
2324          500.053      
2338          500.05       
2352          500.048      
