# Probe 0 (0.0015 0.0015 0)
# Probe 1 (0.0015 0.0015 0.002)
# Probe 2 (0.0015 0.0015 0.004)
# Probe 3 (0.0015 0.0015 0.006)
# Probe 4 (0.0015 0.0015 0.008)
# Probe 5 (0.0015 0.0015 0.01)
# Probe 6 (0.0015 0.0015 0.012)
# Probe 7 (0.0015 0.0015 0.014)
# Probe 8 (0.0015 0.0015 0.016)
# Probe 9 (0.0015 0.0015 0.018)
# Probe 10 (0.0015 0.0015 0.02)
# Time        0             1             2             3             4             5             6             7             8             9             10           
50            (-1.1887 -1.1887 -9.38126e+06) (-1.1887 -1.1887 -9.38126e+06) (-1.1887 -1.1887 -9.38126e+06) (-1.1887 -1.1887 -9.38126e+06) (-1.1887 -1.1887 -9.38126e+06) (-1.1887 -1.1887 -9.38126e+06) (-1.1887 -1.1887 -9.38126e+06) (-1.1887 -1.1887 -9.38126e+06) (-1.1887 -1.1887 -9.38126e+06) (-1.1887 -1.1887 -9.38126e+06) (-1.1887 -1.1887 -9.38126e+06)
100           (-0.0166878 -0.0166878 -9.38126e+06) (-0.0166878 -0.0166878 -9.38126e+06) (-0.0166878 -0.0166878 -9.38126e+06) (-0.0166878 -0.0166878 -9.38126e+06) (-0.0166878 -0.0166878 -9.38126e+06) (-0.0166878 -0.0166878 -9.38126e+06) (-0.0166878 -0.0166878 -9.38126e+06) (-0.0166878 -0.0166878 -9.38126e+06) (-0.0166878 -0.0166878 -9.38126e+06) (-0.0166878 -0.0166878 -9.38126e+06) (-0.0166878 -0.0166878 -9.38126e+06)
150           (0.000927813 0.000927836 -9.38126e+06) (0.000927813 0.000927836 -9.38126e+06) (0.000927813 0.000927836 -9.38126e+06) (0.000927813 0.000927836 -9.38126e+06) (0.000927813 0.000927836 -9.38126e+06) (0.000927813 0.000927836 -9.38126e+06) (0.000927813 0.000927836 -9.38126e+06) (0.000927813 0.000927836 -9.38126e+06) (0.000927813 0.000927836 -9.38126e+06) (0.000927813 0.000927836 -9.38126e+06) (0.000927813 0.000927836 -9.38126e+06)
200           (0.000262079 0.000262101 -9.38126e+06) (0.000262079 0.000262101 -9.38126e+06) (0.000262079 0.000262101 -9.38126e+06) (0.000262079 0.000262101 -9.38126e+06) (0.000262079 0.000262101 -9.38126e+06) (0.000262079 0.000262101 -9.38126e+06) (0.000262079 0.000262101 -9.38126e+06) (0.000262079 0.000262101 -9.38126e+06) (0.000262079 0.000262101 -9.38126e+06) (0.000262079 0.000262101 -9.38126e+06) (0.000262079 0.000262101 -9.38126e+06)
250           (4.68514e-05 4.68736e-05 -9.38126e+06) (4.68514e-05 4.68736e-05 -9.38126e+06) (4.68514e-05 4.68736e-05 -9.38126e+06) (4.68514e-05 4.68736e-05 -9.38126e+06) (4.68514e-05 4.68736e-05 -9.38126e+06) (4.68514e-05 4.68736e-05 -9.38126e+06) (4.68514e-05 4.68736e-05 -9.38126e+06) (4.68514e-05 4.68736e-05 -9.38126e+06) (4.68514e-05 4.68736e-05 -9.38126e+06) (4.68514e-05 4.68736e-05 -9.38126e+06) (4.68514e-05 4.68736e-05 -9.38126e+06)
300           (7.83817e-06 7.86038e-06 -9.38126e+06) (7.83817e-06 7.86038e-06 -9.38126e+06) (7.83817e-06 7.86038e-06 -9.38126e+06) (7.83817e-06 7.86038e-06 -9.38126e+06) (7.83817e-06 7.86038e-06 -9.38126e+06) (7.83817e-06 7.86038e-06 -9.38126e+06) (7.83817e-06 7.86038e-06 -9.38126e+06) (7.83817e-06 7.86038e-06 -9.38126e+06) (7.83817e-06 7.86038e-06 -9.38126e+06) (7.83817e-06 7.86038e-06 -9.38126e+06) (7.83817e-06 7.86038e-06 -9.38126e+06)
350           (1.31006e-06 1.28786e-06 -9.38126e+06) (1.31006e-06 1.28786e-06 -9.38126e+06) (1.31006e-06 1.28786e-06 -9.38126e+06) (1.31006e-06 1.28786e-06 -9.38126e+06) (1.31006e-06 1.28786e-06 -9.38126e+06) (1.31006e-06 1.28786e-06 -9.38126e+06) (1.31006e-06 1.28786e-06 -9.38126e+06) (1.31006e-06 1.28786e-06 -9.38126e+06) (1.31006e-06 1.28786e-06 -9.38126e+06) (1.31006e-06 1.28786e-06 -9.38126e+06) (1.31006e-06 1.28786e-06 -9.38126e+06)
400           (1.9984e-07 1.9984e-07 -9.38126e+06) (1.9984e-07 1.9984e-07 -9.38126e+06) (1.9984e-07 1.9984e-07 -9.38126e+06) (1.9984e-07 1.9984e-07 -9.38126e+06) (1.9984e-07 1.9984e-07 -9.38126e+06) (1.9984e-07 1.9984e-07 -9.38126e+06) (1.9984e-07 1.9984e-07 -9.38126e+06) (1.9984e-07 1.9984e-07 -9.38126e+06) (1.9984e-07 1.9984e-07 -9.38126e+06) (1.9984e-07 1.9984e-07 -9.38126e+06) (1.9984e-07 1.9984e-07 -9.38126e+06)
450           (2.22045e-08 6.66134e-08 -9.38126e+06) (2.22045e-08 6.66134e-08 -9.38126e+06) (2.22045e-08 6.66134e-08 -9.38126e+06) (2.22045e-08 6.66134e-08 -9.38126e+06) (2.22045e-08 6.66134e-08 -9.38126e+06) (2.22045e-08 6.66134e-08 -9.38126e+06) (2.22045e-08 6.66134e-08 -9.38126e+06) (2.22045e-08 6.66134e-08 -9.38126e+06) (2.22045e-08 6.66134e-08 -9.38126e+06) (2.22045e-08 6.66134e-08 -9.38126e+06) (2.22045e-08 6.66134e-08 -9.38126e+06)
500           (2.22045e-08 2.22045e-08 -9.38126e+06) (2.22045e-08 2.22045e-08 -9.38126e+06) (2.22045e-08 2.22045e-08 -9.38126e+06) (2.22045e-08 2.22045e-08 -9.38126e+06) (2.22045e-08 2.22045e-08 -9.38126e+06) (2.22045e-08 2.22045e-08 -9.38126e+06) (2.22045e-08 2.22045e-08 -9.38126e+06) (2.22045e-08 2.22045e-08 -9.38126e+06) (2.22045e-08 2.22045e-08 -9.38126e+06) (2.22045e-08 2.22045e-08 -9.38126e+06) (2.22045e-08 2.22045e-08 -9.38126e+06)
550           (-2.22045e-08 0 -9.38126e+06) (-2.22045e-08 0 -9.38126e+06) (-2.22045e-08 0 -9.38126e+06) (-2.22045e-08 0 -9.38126e+06) (-2.22045e-08 0 -9.38126e+06) (-2.22045e-08 0 -9.38126e+06) (-2.22045e-08 0 -9.38126e+06) (-2.22045e-08 0 -9.38126e+06) (-2.22045e-08 0 -9.38126e+06) (-2.22045e-08 0 -9.38126e+06) (-2.22045e-08 0 -9.38126e+06)
600           (-2.22045e-08 0 -9.38126e+06) (-2.22045e-08 0 -9.38126e+06) (-2.22045e-08 0 -9.38126e+06) (-2.22045e-08 0 -9.38126e+06) (-2.22045e-08 0 -9.38126e+06) (-2.22045e-08 0 -9.38126e+06) (-2.22045e-08 0 -9.38126e+06) (-2.22045e-08 0 -9.38126e+06) (-2.22045e-08 0 -9.38126e+06) (-2.22045e-08 0 -9.38126e+06) (-2.22045e-08 0 -9.38126e+06)
650           (-2.22045e-08 0 -9.38126e+06) (-2.22045e-08 0 -9.38126e+06) (-2.22045e-08 0 -9.38126e+06) (-2.22045e-08 0 -9.38126e+06) (-2.22045e-08 0 -9.38126e+06) (-2.22045e-08 0 -9.38126e+06) (-2.22045e-08 0 -9.38126e+06) (-2.22045e-08 0 -9.38126e+06) (-2.22045e-08 0 -9.38126e+06) (-2.22045e-08 0 -9.38126e+06) (-2.22045e-08 0 -9.38126e+06)
700           (-2.22045e-08 -2.22045e-08 -9.38126e+06) (-2.22045e-08 -2.22045e-08 -9.38126e+06) (-2.22045e-08 -2.22045e-08 -9.38126e+06) (-2.22045e-08 -2.22045e-08 -9.38126e+06) (-2.22045e-08 -2.22045e-08 -9.38126e+06) (-2.22045e-08 -2.22045e-08 -9.38126e+06) (-2.22045e-08 -2.22045e-08 -9.38126e+06) (-2.22045e-08 -2.22045e-08 -9.38126e+06) (-2.22045e-08 -2.22045e-08 -9.38126e+06) (-2.22045e-08 -2.22045e-08 -9.38126e+06) (-2.22045e-08 -2.22045e-08 -9.38126e+06)
750           (-2.22045e-08 -2.22045e-08 -9.38126e+06) (-2.22045e-08 -2.22045e-08 -9.38126e+06) (-2.22045e-08 -2.22045e-08 -9.38126e+06) (-2.22045e-08 -2.22045e-08 -9.38126e+06) (-2.22045e-08 -2.22045e-08 -9.38126e+06) (-2.22045e-08 -2.22045e-08 -9.38126e+06) (-2.22045e-08 -2.22045e-08 -9.38126e+06) (-2.22045e-08 -2.22045e-08 -9.38126e+06) (-2.22045e-08 -2.22045e-08 -9.38126e+06) (-2.22045e-08 -2.22045e-08 -9.38126e+06) (-2.22045e-08 -2.22045e-08 -9.38126e+06)
800           (0 0 -9.38126e+06) (0 0 -9.38126e+06) (0 0 -9.38126e+06) (0 0 -9.38126e+06) (0 0 -9.38126e+06) (0 0 -9.38126e+06) (0 0 -9.38126e+06) (0 0 -9.38126e+06) (0 0 -9.38126e+06) (0 0 -9.38126e+06) (0 0 -9.38126e+06)
850           (0 0 -9.38126e+06) (0 0 -9.38126e+06) (0 0 -9.38126e+06) (0 0 -9.38126e+06) (0 0 -9.38126e+06) (0 0 -9.38126e+06) (0 0 -9.38126e+06) (0 0 -9.38126e+06) (0 0 -9.38126e+06) (0 0 -9.38126e+06) (0 0 -9.38126e+06)
900           (0 0 -9.38126e+06) (0 0 -9.38126e+06) (0 0 -9.38126e+06) (0 0 -9.38126e+06) (0 0 -9.38126e+06) (0 0 -9.38126e+06) (0 0 -9.38126e+06) (0 0 -9.38126e+06) (0 0 -9.38126e+06) (0 0 -9.38126e+06) (0 0 -9.38126e+06)
950           (0 0 -9.38126e+06) (0 0 -9.38126e+06) (0 0 -9.38126e+06) (0 0 -9.38126e+06) (0 0 -9.38126e+06) (0 0 -9.38126e+06) (0 0 -9.38126e+06) (0 0 -9.38126e+06) (0 0 -9.38126e+06) (0 0 -9.38126e+06) (0 0 -9.38126e+06)
1000          (0 0 -9.38126e+06) (0 0 -9.38126e+06) (0 0 -9.38126e+06) (0 0 -9.38126e+06) (0 0 -9.38126e+06) (0 0 -9.38126e+06) (0 0 -9.38126e+06) (0 0 -9.38126e+06) (0 0 -9.38126e+06) (0 0 -9.38126e+06) (0 0 -9.38126e+06)
1050          (0 0 -9.38126e+06) (0 0 -9.38126e+06) (0 0 -9.38126e+06) (0 0 -9.38126e+06) (0 0 -9.38126e+06) (0 0 -9.38126e+06) (0 0 -9.38126e+06) (0 0 -9.38126e+06) (0 0 -9.38126e+06) (0 0 -9.38126e+06) (0 0 -9.38126e+06)
1100          (0 0 -9.38126e+06) (0 0 -9.38126e+06) (0 0 -9.38126e+06) (0 0 -9.38126e+06) (0 0 -9.38126e+06) (0 0 -9.38126e+06) (0 0 -9.38126e+06) (0 0 -9.38126e+06) (0 0 -9.38126e+06) (0 0 -9.38126e+06) (0 0 -9.38126e+06)
1150          (0 0 -9.38126e+06) (0 0 -9.38126e+06) (0 0 -9.38126e+06) (0 0 -9.38126e+06) (0 0 -9.38126e+06) (0 0 -9.38126e+06) (0 0 -9.38126e+06) (0 0 -9.38126e+06) (0 0 -9.38126e+06) (0 0 -9.38126e+06) (0 0 -9.38126e+06)
1200          (0 0 -9.38126e+06) (0 0 -9.38126e+06) (0 0 -9.38126e+06) (0 0 -9.38126e+06) (0 0 -9.38126e+06) (0 0 -9.38126e+06) (0 0 -9.38126e+06) (0 0 -9.38126e+06) (0 0 -9.38126e+06) (0 0 -9.38126e+06) (0 0 -9.38126e+06)
1250          (0 0 -9.38126e+06) (0 0 -9.38126e+06) (0 0 -9.38126e+06) (0 0 -9.38126e+06) (0 0 -9.38126e+06) (0 0 -9.38126e+06) (0 0 -9.38126e+06) (0 0 -9.38126e+06) (0 0 -9.38126e+06) (0 0 -9.38126e+06) (0 0 -9.38126e+06)
1300          (0 0 -9.38126e+06) (0 0 -9.38126e+06) (0 0 -9.38126e+06) (0 0 -9.38126e+06) (0 0 -9.38126e+06) (0 0 -9.38126e+06) (0 0 -9.38126e+06) (0 0 -9.38126e+06) (0 0 -9.38126e+06) (0 0 -9.38126e+06) (0 0 -9.38126e+06)
1350          (0 0 -9.38126e+06) (0 0 -9.38126e+06) (0 0 -9.38126e+06) (0 0 -9.38126e+06) (0 0 -9.38126e+06) (0 0 -9.38126e+06) (0 0 -9.38126e+06) (0 0 -9.38126e+06) (0 0 -9.38126e+06) (0 0 -9.38126e+06) (0 0 -9.38126e+06)
1400          (0 0 -9.38126e+06) (0 0 -9.38126e+06) (0 0 -9.38126e+06) (0 0 -9.38126e+06) (0 0 -9.38126e+06) (0 0 -9.38126e+06) (0 0 -9.38126e+06) (0 0 -9.38126e+06) (0 0 -9.38126e+06) (0 0 -9.38126e+06) (0 0 -9.38126e+06)
1450          (0 0 -9.38126e+06) (0 0 -9.38126e+06) (0 0 -9.38126e+06) (0 0 -9.38126e+06) (0 0 -9.38126e+06) (0 0 -9.38126e+06) (0 0 -9.38126e+06) (0 0 -9.38126e+06) (0 0 -9.38126e+06) (0 0 -9.38126e+06) (0 0 -9.38126e+06)
1500          (0 0 -9.38126e+06) (0 0 -9.38126e+06) (0 0 -9.38126e+06) (0 0 -9.38126e+06) (0 0 -9.38126e+06) (0 0 -9.38126e+06) (0 0 -9.38126e+06) (0 0 -9.38126e+06) (0 0 -9.38126e+06) (0 0 -9.38126e+06) (0 0 -9.38126e+06)
1550          (0 0 -9.38126e+06) (0 0 -9.38126e+06) (0 0 -9.38126e+06) (0 0 -9.38126e+06) (0 0 -9.38126e+06) (0 0 -9.38126e+06) (0 0 -9.38126e+06) (0 0 -9.38126e+06) (0 0 -9.38126e+06) (0 0 -9.38126e+06) (0 0 -9.38126e+06)
1600          (0 0 -9.38126e+06) (0 0 -9.38126e+06) (0 0 -9.38126e+06) (0 0 -9.38126e+06) (0 0 -9.38126e+06) (0 0 -9.38126e+06) (0 0 -9.38126e+06) (0 0 -9.38126e+06) (0 0 -9.38126e+06) (0 0 -9.38126e+06) (0 0 -9.38126e+06)
1650          (0 0 -9.38126e+06) (0 0 -9.38126e+06) (0 0 -9.38126e+06) (0 0 -9.38126e+06) (0 0 -9.38126e+06) (0 0 -9.38126e+06) (0 0 -9.38126e+06) (0 0 -9.38126e+06) (0 0 -9.38126e+06) (0 0 -9.38126e+06) (0 0 -9.38126e+06)
1700          (0 0 -9.38126e+06) (0 0 -9.38126e+06) (0 0 -9.38126e+06) (0 0 -9.38126e+06) (0 0 -9.38126e+06) (0 0 -9.38126e+06) (0 0 -9.38126e+06) (0 0 -9.38126e+06) (0 0 -9.38126e+06) (0 0 -9.38126e+06) (0 0 -9.38126e+06)
1750          (0 0 -9.38126e+06) (0 0 -9.38126e+06) (0 0 -9.38126e+06) (0 0 -9.38126e+06) (0 0 -9.38126e+06) (0 0 -9.38126e+06) (0 0 -9.38126e+06) (0 0 -9.38126e+06) (0 0 -9.38126e+06) (0 0 -9.38126e+06) (0 0 -9.38126e+06)
1800          (0 0 -9.38126e+06) (0 0 -9.38126e+06) (0 0 -9.38126e+06) (0 0 -9.38126e+06) (0 0 -9.38126e+06) (0 0 -9.38126e+06) (0 0 -9.38126e+06) (0 0 -9.38126e+06) (0 0 -9.38126e+06) (0 0 -9.38126e+06) (0 0 -9.38126e+06)
1850          (0 0 -9.38126e+06) (0 0 -9.38126e+06) (0 0 -9.38126e+06) (0 0 -9.38126e+06) (0 0 -9.38126e+06) (0 0 -9.38126e+06) (0 0 -9.38126e+06) (0 0 -9.38126e+06) (0 0 -9.38126e+06) (0 0 -9.38126e+06) (0 0 -9.38126e+06)
1900          (0 0 -9.38126e+06) (0 0 -9.38126e+06) (0 0 -9.38126e+06) (0 0 -9.38126e+06) (0 0 -9.38126e+06) (0 0 -9.38126e+06) (0 0 -9.38126e+06) (0 0 -9.38126e+06) (0 0 -9.38126e+06) (0 0 -9.38126e+06) (0 0 -9.38126e+06)
1950          (0 0 -9.38126e+06) (0 0 -9.38126e+06) (0 0 -9.38126e+06) (0 0 -9.38126e+06) (0 0 -9.38126e+06) (0 0 -9.38126e+06) (0 0 -9.38126e+06) (0 0 -9.38126e+06) (0 0 -9.38126e+06) (0 0 -9.38126e+06) (0 0 -9.38126e+06)
2000          (0 0 -9.38126e+06) (0 0 -9.38126e+06) (0 0 -9.38126e+06) (0 0 -9.38126e+06) (0 0 -9.38126e+06) (0 0 -9.38126e+06) (0 0 -9.38126e+06) (0 0 -9.38126e+06) (0 0 -9.38126e+06) (0 0 -9.38126e+06) (0 0 -9.38126e+06)
2050          (0 0 -9.38126e+06) (0 0 -9.38126e+06) (0 0 -9.38126e+06) (0 0 -9.38126e+06) (0 0 -9.38126e+06) (0 0 -9.38126e+06) (0 0 -9.38126e+06) (0 0 -9.38126e+06) (0 0 -9.38126e+06) (0 0 -9.38126e+06) (0 0 -9.38126e+06)
2100          (0 0 -9.38126e+06) (0 0 -9.38126e+06) (0 0 -9.38126e+06) (0 0 -9.38126e+06) (0 0 -9.38126e+06) (0 0 -9.38126e+06) (0 0 -9.38126e+06) (0 0 -9.38126e+06) (0 0 -9.38126e+06) (0 0 -9.38126e+06) (0 0 -9.38126e+06)
2150          (0 0 -9.38126e+06) (0 0 -9.38126e+06) (0 0 -9.38126e+06) (0 0 -9.38126e+06) (0 0 -9.38126e+06) (0 0 -9.38126e+06) (0 0 -9.38126e+06) (0 0 -9.38126e+06) (0 0 -9.38126e+06) (0 0 -9.38126e+06) (0 0 -9.38126e+06)
2200          (0 0 -9.38126e+06) (0 0 -9.38126e+06) (0 0 -9.38126e+06) (0 0 -9.38126e+06) (0 0 -9.38126e+06) (0 0 -9.38126e+06) (0 0 -9.38126e+06) (0 0 -9.38126e+06) (0 0 -9.38126e+06) (0 0 -9.38126e+06) (0 0 -9.38126e+06)
2250          (0 0 -9.38126e+06) (0 0 -9.38126e+06) (0 0 -9.38126e+06) (0 0 -9.38126e+06) (0 0 -9.38126e+06) (0 0 -9.38126e+06) (0 0 -9.38126e+06) (0 0 -9.38126e+06) (0 0 -9.38126e+06) (0 0 -9.38126e+06) (0 0 -9.38126e+06)
2300          (0 0 -9.38126e+06) (0 0 -9.38126e+06) (0 0 -9.38126e+06) (0 0 -9.38126e+06) (0 0 -9.38126e+06) (0 0 -9.38126e+06) (0 0 -9.38126e+06) (0 0 -9.38126e+06) (0 0 -9.38126e+06) (0 0 -9.38126e+06) (0 0 -9.38126e+06)
2350          (0 0 -9.38126e+06) (0 0 -9.38126e+06) (0 0 -9.38126e+06) (0 0 -9.38126e+06) (0 0 -9.38126e+06) (0 0 -9.38126e+06) (0 0 -9.38126e+06) (0 0 -9.38126e+06) (0 0 -9.38126e+06) (0 0 -9.38126e+06) (0 0 -9.38126e+06)
2400          (0 0 -9.38126e+06) (0 0 -9.38126e+06) (0 0 -9.38126e+06) (0 0 -9.38126e+06) (0 0 -9.38126e+06) (0 0 -9.38126e+06) (0 0 -9.38126e+06) (0 0 -9.38126e+06) (0 0 -9.38126e+06) (0 0 -9.38126e+06) (0 0 -9.38126e+06)
2450          (0 0 -9.38126e+06) (0 0 -9.38126e+06) (0 0 -9.38126e+06) (0 0 -9.38126e+06) (0 0 -9.38126e+06) (0 0 -9.38126e+06) (0 0 -9.38126e+06) (0 0 -9.38126e+06) (0 0 -9.38126e+06) (0 0 -9.38126e+06) (0 0 -9.38126e+06)
2500          (0 0 -9.38126e+06) (0 0 -9.38126e+06) (0 0 -9.38126e+06) (0 0 -9.38126e+06) (0 0 -9.38126e+06) (0 0 -9.38126e+06) (0 0 -9.38126e+06) (0 0 -9.38126e+06) (0 0 -9.38126e+06) (0 0 -9.38126e+06) (0 0 -9.38126e+06)
2550          (0 0 -9.38126e+06) (0 0 -9.38126e+06) (0 0 -9.38126e+06) (0 0 -9.38126e+06) (0 0 -9.38126e+06) (0 0 -9.38126e+06) (0 0 -9.38126e+06) (0 0 -9.38126e+06) (0 0 -9.38126e+06) (0 0 -9.38126e+06) (0 0 -9.38126e+06)
2600          (0 0 -9.38126e+06) (0 0 -9.38126e+06) (0 0 -9.38126e+06) (0 0 -9.38126e+06) (0 0 -9.38126e+06) (0 0 -9.38126e+06) (0 0 -9.38126e+06) (0 0 -9.38126e+06) (0 0 -9.38126e+06) (0 0 -9.38126e+06) (0 0 -9.38126e+06)
2650          (0 0 -9.38126e+06) (0 0 -9.38126e+06) (0 0 -9.38126e+06) (0 0 -9.38126e+06) (0 0 -9.38126e+06) (0 0 -9.38126e+06) (0 0 -9.38126e+06) (0 0 -9.38126e+06) (0 0 -9.38126e+06) (0 0 -9.38126e+06) (0 0 -9.38126e+06)
2700          (0 0 -9.38126e+06) (0 0 -9.38126e+06) (0 0 -9.38126e+06) (0 0 -9.38126e+06) (0 0 -9.38126e+06) (0 0 -9.38126e+06) (0 0 -9.38126e+06) (0 0 -9.38126e+06) (0 0 -9.38126e+06) (0 0 -9.38126e+06) (0 0 -9.38126e+06)
2750          (0 0 -9.38126e+06) (0 0 -9.38126e+06) (0 0 -9.38126e+06) (0 0 -9.38126e+06) (0 0 -9.38126e+06) (0 0 -9.38126e+06) (0 0 -9.38126e+06) (0 0 -9.38126e+06) (0 0 -9.38126e+06) (0 0 -9.38126e+06) (0 0 -9.38126e+06)
2800          (0 0 -9.38126e+06) (0 0 -9.38126e+06) (0 0 -9.38126e+06) (0 0 -9.38126e+06) (0 0 -9.38126e+06) (0 0 -9.38126e+06) (0 0 -9.38126e+06) (0 0 -9.38126e+06) (0 0 -9.38126e+06) (0 0 -9.38126e+06) (0 0 -9.38126e+06)
2850          (0 0 -9.38126e+06) (0 0 -9.38126e+06) (0 0 -9.38126e+06) (0 0 -9.38126e+06) (0 0 -9.38126e+06) (0 0 -9.38126e+06) (0 0 -9.38126e+06) (0 0 -9.38126e+06) (0 0 -9.38126e+06) (0 0 -9.38126e+06) (0 0 -9.38126e+06)
2900          (0 0 -9.38126e+06) (0 0 -9.38126e+06) (0 0 -9.38126e+06) (0 0 -9.38126e+06) (0 0 -9.38126e+06) (0 0 -9.38126e+06) (0 0 -9.38126e+06) (0 0 -9.38126e+06) (0 0 -9.38126e+06) (0 0 -9.38126e+06) (0 0 -9.38126e+06)
2950          (0 0 -9.38126e+06) (0 0 -9.38126e+06) (0 0 -9.38126e+06) (0 0 -9.38126e+06) (0 0 -9.38126e+06) (0 0 -9.38126e+06) (0 0 -9.38126e+06) (0 0 -9.38126e+06) (0 0 -9.38126e+06) (0 0 -9.38126e+06) (0 0 -9.38126e+06)
3000          (0 0 -9.38126e+06) (0 0 -9.38126e+06) (0 0 -9.38126e+06) (0 0 -9.38126e+06) (0 0 -9.38126e+06) (0 0 -9.38126e+06) (0 0 -9.38126e+06) (0 0 -9.38126e+06) (0 0 -9.38126e+06) (0 0 -9.38126e+06) (0 0 -9.38126e+06)
3050          (0 0 -9.38126e+06) (0 0 -9.38126e+06) (0 0 -9.38126e+06) (0 0 -9.38126e+06) (0 0 -9.38126e+06) (0 0 -9.38126e+06) (0 0 -9.38126e+06) (0 0 -9.38126e+06) (0 0 -9.38126e+06) (0 0 -9.38126e+06) (0 0 -9.38126e+06)
3100          (0 0 -9.38126e+06) (0 0 -9.38126e+06) (0 0 -9.38126e+06) (0 0 -9.38126e+06) (0 0 -9.38126e+06) (0 0 -9.38126e+06) (0 0 -9.38126e+06) (0 0 -9.38126e+06) (0 0 -9.38126e+06) (0 0 -9.38126e+06) (0 0 -9.38126e+06)
3150          (0 0 -9.38126e+06) (0 0 -9.38126e+06) (0 0 -9.38126e+06) (0 0 -9.38126e+06) (0 0 -9.38126e+06) (0 0 -9.38126e+06) (0 0 -9.38126e+06) (0 0 -9.38126e+06) (0 0 -9.38126e+06) (0 0 -9.38126e+06) (0 0 -9.38126e+06)
3200          (0 0 -9.38126e+06) (0 0 -9.38126e+06) (0 0 -9.38126e+06) (0 0 -9.38126e+06) (0 0 -9.38126e+06) (0 0 -9.38126e+06) (0 0 -9.38126e+06) (0 0 -9.38126e+06) (0 0 -9.38126e+06) (0 0 -9.38126e+06) (0 0 -9.38126e+06)
3250          (0 0 -9.38126e+06) (0 0 -9.38126e+06) (0 0 -9.38126e+06) (0 0 -9.38126e+06) (0 0 -9.38126e+06) (0 0 -9.38126e+06) (0 0 -9.38126e+06) (0 0 -9.38126e+06) (0 0 -9.38126e+06) (0 0 -9.38126e+06) (0 0 -9.38126e+06)
3300          (0 0 -9.38126e+06) (0 0 -9.38126e+06) (0 0 -9.38126e+06) (0 0 -9.38126e+06) (0 0 -9.38126e+06) (0 0 -9.38126e+06) (0 0 -9.38126e+06) (0 0 -9.38126e+06) (0 0 -9.38126e+06) (0 0 -9.38126e+06) (0 0 -9.38126e+06)
3350          (0 0 -9.38126e+06) (0 0 -9.38126e+06) (0 0 -9.38126e+06) (0 0 -9.38126e+06) (0 0 -9.38126e+06) (0 0 -9.38126e+06) (0 0 -9.38126e+06) (0 0 -9.38126e+06) (0 0 -9.38126e+06) (0 0 -9.38126e+06) (0 0 -9.38126e+06)
3400          (0 0 -9.38126e+06) (0 0 -9.38126e+06) (0 0 -9.38126e+06) (0 0 -9.38126e+06) (0 0 -9.38126e+06) (0 0 -9.38126e+06) (0 0 -9.38126e+06) (0 0 -9.38126e+06) (0 0 -9.38126e+06) (0 0 -9.38126e+06) (0 0 -9.38126e+06)
3450          (0 0 -9.38126e+06) (0 0 -9.38126e+06) (0 0 -9.38126e+06) (0 0 -9.38126e+06) (0 0 -9.38126e+06) (0 0 -9.38126e+06) (0 0 -9.38126e+06) (0 0 -9.38126e+06) (0 0 -9.38126e+06) (0 0 -9.38126e+06) (0 0 -9.38126e+06)
3500          (0 0 -9.38126e+06) (0 0 -9.38126e+06) (0 0 -9.38126e+06) (0 0 -9.38126e+06) (0 0 -9.38126e+06) (0 0 -9.38126e+06) (0 0 -9.38126e+06) (0 0 -9.38126e+06) (0 0 -9.38126e+06) (0 0 -9.38126e+06) (0 0 -9.38126e+06)
3550          (0 0 -9.38126e+06) (0 0 -9.38126e+06) (0 0 -9.38126e+06) (0 0 -9.38126e+06) (0 0 -9.38126e+06) (0 0 -9.38126e+06) (0 0 -9.38126e+06) (0 0 -9.38126e+06) (0 0 -9.38126e+06) (0 0 -9.38126e+06) (0 0 -9.38126e+06)
3600          (0 0 -9.38126e+06) (0 0 -9.38126e+06) (0 0 -9.38126e+06) (0 0 -9.38126e+06) (0 0 -9.38126e+06) (0 0 -9.38126e+06) (0 0 -9.38126e+06) (0 0 -9.38126e+06) (0 0 -9.38126e+06) (0 0 -9.38126e+06) (0 0 -9.38126e+06)
3650          (0 0 -9.38126e+06) (0 0 -9.38126e+06) (0 0 -9.38126e+06) (0 0 -9.38126e+06) (0 0 -9.38126e+06) (0 0 -9.38126e+06) (0 0 -9.38126e+06) (0 0 -9.38126e+06) (0 0 -9.38126e+06) (0 0 -9.38126e+06) (0 0 -9.38126e+06)
3700          (0 0 -9.38126e+06) (0 0 -9.38126e+06) (0 0 -9.38126e+06) (0 0 -9.38126e+06) (0 0 -9.38126e+06) (0 0 -9.38126e+06) (0 0 -9.38126e+06) (0 0 -9.38126e+06) (0 0 -9.38126e+06) (0 0 -9.38126e+06) (0 0 -9.38126e+06)
3750          (0 0 -9.38126e+06) (0 0 -9.38126e+06) (0 0 -9.38126e+06) (0 0 -9.38126e+06) (0 0 -9.38126e+06) (0 0 -9.38126e+06) (0 0 -9.38126e+06) (0 0 -9.38126e+06) (0 0 -9.38126e+06) (0 0 -9.38126e+06) (0 0 -9.38126e+06)
3800          (0 0 -9.38126e+06) (0 0 -9.38126e+06) (0 0 -9.38126e+06) (0 0 -9.38126e+06) (0 0 -9.38126e+06) (0 0 -9.38126e+06) (0 0 -9.38126e+06) (0 0 -9.38126e+06) (0 0 -9.38126e+06) (0 0 -9.38126e+06) (0 0 -9.38126e+06)
3850          (0 0 -9.38126e+06) (0 0 -9.38126e+06) (0 0 -9.38126e+06) (0 0 -9.38126e+06) (0 0 -9.38126e+06) (0 0 -9.38126e+06) (0 0 -9.38126e+06) (0 0 -9.38126e+06) (0 0 -9.38126e+06) (0 0 -9.38126e+06) (0 0 -9.38126e+06)
3900          (0 0 -9.38126e+06) (0 0 -9.38126e+06) (0 0 -9.38126e+06) (0 0 -9.38126e+06) (0 0 -9.38126e+06) (0 0 -9.38126e+06) (0 0 -9.38126e+06) (0 0 -9.38126e+06) (0 0 -9.38126e+06) (0 0 -9.38126e+06) (0 0 -9.38126e+06)
3950          (0 0 -9.38126e+06) (0 0 -9.38126e+06) (0 0 -9.38126e+06) (0 0 -9.38126e+06) (0 0 -9.38126e+06) (0 0 -9.38126e+06) (0 0 -9.38126e+06) (0 0 -9.38126e+06) (0 0 -9.38126e+06) (0 0 -9.38126e+06) (0 0 -9.38126e+06)
4000          (0 0 -9.38126e+06) (0 0 -9.38126e+06) (0 0 -9.38126e+06) (0 0 -9.38126e+06) (0 0 -9.38126e+06) (0 0 -9.38126e+06) (0 0 -9.38126e+06) (0 0 -9.38126e+06) (0 0 -9.38126e+06) (0 0 -9.38126e+06) (0 0 -9.38126e+06)
4050          (0 0 -9.38126e+06) (0 0 -9.38126e+06) (0 0 -9.38126e+06) (0 0 -9.38126e+06) (0 0 -9.38126e+06) (0 0 -9.38126e+06) (0 0 -9.38126e+06) (0 0 -9.38126e+06) (0 0 -9.38126e+06) (0 0 -9.38126e+06) (0 0 -9.38126e+06)
4100          (0 0 -9.38126e+06) (0 0 -9.38126e+06) (0 0 -9.38126e+06) (0 0 -9.38126e+06) (0 0 -9.38126e+06) (0 0 -9.38126e+06) (0 0 -9.38126e+06) (0 0 -9.38126e+06) (0 0 -9.38126e+06) (0 0 -9.38126e+06) (0 0 -9.38126e+06)
4150          (0 0 -9.38126e+06) (0 0 -9.38126e+06) (0 0 -9.38126e+06) (0 0 -9.38126e+06) (0 0 -9.38126e+06) (0 0 -9.38126e+06) (0 0 -9.38126e+06) (0 0 -9.38126e+06) (0 0 -9.38126e+06) (0 0 -9.38126e+06) (0 0 -9.38126e+06)
4200          (0 0 -9.38126e+06) (0 0 -9.38126e+06) (0 0 -9.38126e+06) (0 0 -9.38126e+06) (0 0 -9.38126e+06) (0 0 -9.38126e+06) (0 0 -9.38126e+06) (0 0 -9.38126e+06) (0 0 -9.38126e+06) (0 0 -9.38126e+06) (0 0 -9.38126e+06)
4250          (0 0 -9.38126e+06) (0 0 -9.38126e+06) (0 0 -9.38126e+06) (0 0 -9.38126e+06) (0 0 -9.38126e+06) (0 0 -9.38126e+06) (0 0 -9.38126e+06) (0 0 -9.38126e+06) (0 0 -9.38126e+06) (0 0 -9.38126e+06) (0 0 -9.38126e+06)
4300          (0 0 -9.38126e+06) (0 0 -9.38126e+06) (0 0 -9.38126e+06) (0 0 -9.38126e+06) (0 0 -9.38126e+06) (0 0 -9.38126e+06) (0 0 -9.38126e+06) (0 0 -9.38126e+06) (0 0 -9.38126e+06) (0 0 -9.38126e+06) (0 0 -9.38126e+06)
4350          (0 0 -9.38126e+06) (0 0 -9.38126e+06) (0 0 -9.38126e+06) (0 0 -9.38126e+06) (0 0 -9.38126e+06) (0 0 -9.38126e+06) (0 0 -9.38126e+06) (0 0 -9.38126e+06) (0 0 -9.38126e+06) (0 0 -9.38126e+06) (0 0 -9.38126e+06)
4400          (0 0 -9.38126e+06) (0 0 -9.38126e+06) (0 0 -9.38126e+06) (0 0 -9.38126e+06) (0 0 -9.38126e+06) (0 0 -9.38126e+06) (0 0 -9.38126e+06) (0 0 -9.38126e+06) (0 0 -9.38126e+06) (0 0 -9.38126e+06) (0 0 -9.38126e+06)
4450          (0 0 -9.38126e+06) (0 0 -9.38126e+06) (0 0 -9.38126e+06) (0 0 -9.38126e+06) (0 0 -9.38126e+06) (0 0 -9.38126e+06) (0 0 -9.38126e+06) (0 0 -9.38126e+06) (0 0 -9.38126e+06) (0 0 -9.38126e+06) (0 0 -9.38126e+06)
4500          (0 0 -9.38126e+06) (0 0 -9.38126e+06) (0 0 -9.38126e+06) (0 0 -9.38126e+06) (0 0 -9.38126e+06) (0 0 -9.38126e+06) (0 0 -9.38126e+06) (0 0 -9.38126e+06) (0 0 -9.38126e+06) (0 0 -9.38126e+06) (0 0 -9.38126e+06)
4550          (0 0 -9.38126e+06) (0 0 -9.38126e+06) (0 0 -9.38126e+06) (0 0 -9.38126e+06) (0 0 -9.38126e+06) (0 0 -9.38126e+06) (0 0 -9.38126e+06) (0 0 -9.38126e+06) (0 0 -9.38126e+06) (0 0 -9.38126e+06) (0 0 -9.38126e+06)
4600          (0 0 -9.38126e+06) (0 0 -9.38126e+06) (0 0 -9.38126e+06) (0 0 -9.38126e+06) (0 0 -9.38126e+06) (0 0 -9.38126e+06) (0 0 -9.38126e+06) (0 0 -9.38126e+06) (0 0 -9.38126e+06) (0 0 -9.38126e+06) (0 0 -9.38126e+06)
4650          (0 0 -9.38126e+06) (0 0 -9.38126e+06) (0 0 -9.38126e+06) (0 0 -9.38126e+06) (0 0 -9.38126e+06) (0 0 -9.38126e+06) (0 0 -9.38126e+06) (0 0 -9.38126e+06) (0 0 -9.38126e+06) (0 0 -9.38126e+06) (0 0 -9.38126e+06)
4700          (0 0 -9.38126e+06) (0 0 -9.38126e+06) (0 0 -9.38126e+06) (0 0 -9.38126e+06) (0 0 -9.38126e+06) (0 0 -9.38126e+06) (0 0 -9.38126e+06) (0 0 -9.38126e+06) (0 0 -9.38126e+06) (0 0 -9.38126e+06) (0 0 -9.38126e+06)
4750          (0 0 -9.38126e+06) (0 0 -9.38126e+06) (0 0 -9.38126e+06) (0 0 -9.38126e+06) (0 0 -9.38126e+06) (0 0 -9.38126e+06) (0 0 -9.38126e+06) (0 0 -9.38126e+06) (0 0 -9.38126e+06) (0 0 -9.38126e+06) (0 0 -9.38126e+06)
4800          (0 0 -9.38126e+06) (0 0 -9.38126e+06) (0 0 -9.38126e+06) (0 0 -9.38126e+06) (0 0 -9.38126e+06) (0 0 -9.38126e+06) (0 0 -9.38126e+06) (0 0 -9.38126e+06) (0 0 -9.38126e+06) (0 0 -9.38126e+06) (0 0 -9.38126e+06)
4850          (0 0 -9.38126e+06) (0 0 -9.38126e+06) (0 0 -9.38126e+06) (0 0 -9.38126e+06) (0 0 -9.38126e+06) (0 0 -9.38126e+06) (0 0 -9.38126e+06) (0 0 -9.38126e+06) (0 0 -9.38126e+06) (0 0 -9.38126e+06) (0 0 -9.38126e+06)
4900          (0 0 -9.38126e+06) (0 0 -9.38126e+06) (0 0 -9.38126e+06) (0 0 -9.38126e+06) (0 0 -9.38126e+06) (0 0 -9.38126e+06) (0 0 -9.38126e+06) (0 0 -9.38126e+06) (0 0 -9.38126e+06) (0 0 -9.38126e+06) (0 0 -9.38126e+06)
4950          (0 0 -9.38126e+06) (0 0 -9.38126e+06) (0 0 -9.38126e+06) (0 0 -9.38126e+06) (0 0 -9.38126e+06) (0 0 -9.38126e+06) (0 0 -9.38126e+06) (0 0 -9.38126e+06) (0 0 -9.38126e+06) (0 0 -9.38126e+06) (0 0 -9.38126e+06)
5000          (0 0 -9.38126e+06) (0 0 -9.38126e+06) (0 0 -9.38126e+06) (0 0 -9.38126e+06) (0 0 -9.38126e+06) (0 0 -9.38126e+06) (0 0 -9.38126e+06) (0 0 -9.38126e+06) (0 0 -9.38126e+06) (0 0 -9.38126e+06) (0 0 -9.38126e+06)
