# Probe 0 (0.0015 0.0015 0)
# Probe 1 (0.0015 0.0015 0.002)
# Probe 2 (0.0015 0.0015 0.004)
# Probe 3 (0.0015 0.0015 0.006)
# Probe 4 (0.0015 0.0015 0.008)
# Probe 5 (0.0015 0.0015 0.01)
# Probe 6 (0.0015 0.0015 0.012)
# Probe 7 (0.0015 0.0015 0.014)
# Probe 8 (0.0015 0.0015 0.016)
# Probe 9 (0.0015 0.0015 0.018)
# Probe 10 (0.0015 0.0015 0.02)
# Time        0             1             2             3             4             5             6             7             8             9             10           
50            (1.72749e-12 -1.6782e-12 8.36904e-11) (1.72749e-12 -1.6782e-12 8.36904e-11) (1.72749e-12 -1.6782e-12 8.36904e-11) (1.72749e-12 -1.6782e-12 8.36904e-11) (1.72749e-12 -1.6782e-12 8.36904e-11) (1.72749e-12 -1.6782e-12 8.36904e-11) (1.72749e-12 -1.6782e-12 8.36904e-11) (1.72749e-12 -1.6782e-12 8.36904e-11) (1.72749e-12 -1.6782e-12 8.36904e-11) (1.72749e-12 -1.6782e-12 8.36904e-11) (1.72749e-12 -1.6782e-12 8.36904e-11)
100           (1.88522e-13 -1.68179e-12 1.91308e-10) (1.88522e-13 -1.68179e-12 1.91308e-10) (1.88522e-13 -1.68179e-12 1.91308e-10) (1.88522e-13 -1.68179e-12 1.91308e-10) (1.88522e-13 -1.68179e-12 1.91308e-10) (1.88522e-13 -1.68179e-12 1.91308e-10) (1.88522e-13 -1.68179e-12 1.91308e-10) (1.88522e-13 -1.68179e-12 1.91308e-10) (1.88522e-13 -1.68179e-12 1.91308e-10) (1.88522e-13 -1.68179e-12 1.91308e-10) (1.88522e-13 -1.68179e-12 1.91308e-10)
150           (9.59259e-12 9.57167e-12 -8.64411e-11) (9.59259e-12 9.57167e-12 -8.64411e-11) (9.59259e-12 9.57167e-12 -8.64411e-11) (9.59259e-12 9.57167e-12 -8.64411e-11) (9.59259e-12 9.57167e-12 -8.64411e-11) (9.59259e-12 9.57167e-12 -8.64411e-11) (9.59259e-12 9.57167e-12 -8.64411e-11) (9.59259e-12 9.57167e-12 -8.64411e-11) (9.59259e-12 9.57167e-12 -8.64411e-11) (9.59259e-12 9.57167e-12 -8.64411e-11) (9.59259e-12 9.57167e-12 -8.64411e-11)
200           (1.8712e-11 1.76861e-12 1.45215e-10) (1.8712e-11 1.76861e-12 1.45215e-10) (1.8712e-11 1.76861e-12 1.45215e-10) (1.8712e-11 1.76861e-12 1.45215e-10) (1.8712e-11 1.76861e-12 1.45215e-10) (1.8712e-11 1.76861e-12 1.45215e-10) (1.8712e-11 1.76861e-12 1.45215e-10) (1.8712e-11 1.76861e-12 1.45215e-10) (1.8712e-11 1.76861e-12 1.45215e-10) (1.8712e-11 1.76861e-12 1.45215e-10) (1.8712e-11 1.76861e-12 1.45215e-10)
250           (1.73873e-12 -1.01962e-11 -2.52908e-11) (1.73873e-12 -1.01962e-11 -2.52908e-11) (1.73873e-12 -1.01962e-11 -2.52908e-11) (1.73873e-12 -1.01962e-11 -2.52908e-11) (1.73873e-12 -1.01962e-11 -2.52908e-11) (1.73873e-12 -1.01962e-11 -2.52908e-11) (1.73873e-12 -1.01962e-11 -2.52908e-11) (1.73873e-12 -1.01962e-11 -2.52908e-11) (1.73873e-12 -1.01962e-11 -2.52908e-11) (1.73873e-12 -1.01962e-11 -2.52908e-11) (1.73873e-12 -1.01962e-11 -2.52908e-11)
300           (9.56737e-12 -8.43761e-13 -7.51426e-11) (9.56737e-12 -8.43761e-13 -7.51426e-11) (9.56737e-12 -8.43761e-13 -7.51426e-11) (9.56737e-12 -8.43761e-13 -7.51426e-11) (9.56737e-12 -8.43761e-13 -7.51426e-11) (9.56737e-12 -8.43761e-13 -7.51426e-11) (9.56737e-12 -8.43761e-13 -7.51426e-11) (9.56737e-12 -8.43761e-13 -7.51426e-11) (9.56737e-12 -8.43761e-13 -7.51426e-11) (9.56737e-12 -8.43761e-13 -7.51426e-11) (9.56737e-12 -8.43761e-13 -7.51426e-11)
350           (-2.11393e-11 1.734e-11 -1.00333e-12) (-2.11393e-11 1.734e-11 -1.00333e-12) (-2.11393e-11 1.734e-11 -1.00333e-12) (-2.11393e-11 1.734e-11 -1.00333e-12) (-2.11393e-11 1.734e-11 -1.00333e-12) (-2.11393e-11 1.734e-11 -1.00333e-12) (-2.11393e-11 1.734e-11 -1.00333e-12) (-2.11393e-11 1.734e-11 -1.00333e-12) (-2.11393e-11 1.734e-11 -1.00333e-12) (-2.11393e-11 1.734e-11 -1.00333e-12) (-2.11393e-11 1.734e-11 -1.00333e-12)
400           (-1.69809e-11 -1.74623e-11 2.25954e-10) (-1.69809e-11 -1.74623e-11 2.25954e-10) (-1.69809e-11 -1.74623e-11 2.25954e-10) (-1.69809e-11 -1.74623e-11 2.25954e-10) (-1.69809e-11 -1.74623e-11 2.25954e-10) (-1.69809e-11 -1.74623e-11 2.25954e-10) (-1.69809e-11 -1.74623e-11 2.25954e-10) (-1.69809e-11 -1.74623e-11 2.25954e-10) (-1.69809e-11 -1.74623e-11 2.25954e-10) (-1.69809e-11 -1.74623e-11 2.25954e-10) (-1.69809e-11 -1.74623e-11 2.25954e-10)
450           (1.89878e-13 -9.68336e-14 -7.13038e-11) (1.89878e-13 -9.68336e-14 -7.13038e-11) (1.89878e-13 -9.68336e-14 -7.13038e-11) (1.89878e-13 -9.68336e-14 -7.13038e-11) (1.89878e-13 -9.68336e-14 -7.13038e-11) (1.89878e-13 -9.68336e-14 -7.13038e-11) (1.89878e-13 -9.68336e-14 -7.13038e-11) (1.89878e-13 -9.68336e-14 -7.13038e-11) (1.89878e-13 -9.68336e-14 -7.13038e-11) (1.89878e-13 -9.68336e-14 -7.13038e-11) (1.89878e-13 -9.68336e-14 -7.13038e-11)
500           (3.42656e-13 -9.28292e-12 1.11718e-11) (3.42656e-13 -9.28292e-12 1.11718e-11) (3.42656e-13 -9.28292e-12 1.11718e-11) (3.42656e-13 -9.28292e-12 1.11718e-11) (3.42656e-13 -9.28292e-12 1.11718e-11) (3.42656e-13 -9.28292e-12 1.11718e-11) (3.42656e-13 -9.28292e-12 1.11718e-11) (3.42656e-13 -9.28292e-12 1.11718e-11) (3.42656e-13 -9.28292e-12 1.11718e-11) (3.42656e-13 -9.28292e-12 1.11718e-11) (3.42656e-13 -9.28292e-12 1.11718e-11)
550           (-1.90463e-11 -2.12083e-11 -1.28688e-10) (-1.90463e-11 -2.12083e-11 -1.28688e-10) (-1.90463e-11 -2.12083e-11 -1.28688e-10) (-1.90463e-11 -2.12083e-11 -1.28688e-10) (-1.90463e-11 -2.12083e-11 -1.28688e-10) (-1.90463e-11 -2.12083e-11 -1.28688e-10) (-1.90463e-11 -2.12083e-11 -1.28688e-10) (-1.90463e-11 -2.12083e-11 -1.28688e-10) (-1.90463e-11 -2.12083e-11 -1.28688e-10) (-1.90463e-11 -2.12083e-11 -1.28688e-10) (-1.90463e-11 -2.12083e-11 -1.28688e-10)
600           (9.20936e-13 -1.81332e-11 9.59596e-11) (9.20936e-13 -1.81332e-11 9.59596e-11) (9.20936e-13 -1.81332e-11 9.59596e-11) (9.20936e-13 -1.81332e-11 9.59596e-11) (9.20936e-13 -1.81332e-11 9.59596e-11) (9.20936e-13 -1.81332e-11 9.59596e-11) (9.20936e-13 -1.81332e-11 9.59596e-11) (9.20936e-13 -1.81332e-11 9.59596e-11) (9.20936e-13 -1.81332e-11 9.59596e-11) (9.20936e-13 -1.81332e-11 9.59596e-11) (9.20936e-13 -1.81332e-11 9.59596e-11)
650           (-2.08649e-11 -2.58065e-13 -2.17913e-10) (-2.08649e-11 -2.58065e-13 -2.17913e-10) (-2.08649e-11 -2.58065e-13 -2.17913e-10) (-2.08649e-11 -2.58065e-13 -2.17913e-10) (-2.08649e-11 -2.58065e-13 -2.17913e-10) (-2.08649e-11 -2.58065e-13 -2.17913e-10) (-2.08649e-11 -2.58065e-13 -2.17913e-10) (-2.08649e-11 -2.58065e-13 -2.17913e-10) (-2.08649e-11 -2.58065e-13 -2.17913e-10) (-2.08649e-11 -2.58065e-13 -2.17913e-10) (-2.08649e-11 -2.58065e-13 -2.17913e-10)
700           (8.73626e-15 -1.99636e-14 1.54906e-10) (8.73626e-15 -1.99636e-14 1.54906e-10) (8.73626e-15 -1.99636e-14 1.54906e-10) (8.73626e-15 -1.99636e-14 1.54906e-10) (8.73626e-15 -1.99636e-14 1.54906e-10) (8.73626e-15 -1.99636e-14 1.54906e-10) (8.73626e-15 -1.99636e-14 1.54906e-10) (8.73626e-15 -1.99636e-14 1.54906e-10) (8.73626e-15 -1.99636e-14 1.54906e-10) (8.73626e-15 -1.99636e-14 1.54906e-10) (8.73626e-15 -1.99636e-14 1.54906e-10)
750           (-1.79606e-12 -1.82605e-11 -1.31916e-10) (-1.79606e-12 -1.82605e-11 -1.31916e-10) (-1.79606e-12 -1.82605e-11 -1.31916e-10) (-1.79606e-12 -1.82605e-11 -1.31916e-10) (-1.79606e-12 -1.82605e-11 -1.31916e-10) (-1.79606e-12 -1.82605e-11 -1.31916e-10) (-1.79606e-12 -1.82605e-11 -1.31916e-10) (-1.79606e-12 -1.82605e-11 -1.31916e-10) (-1.79606e-12 -1.82605e-11 -1.31916e-10) (-1.79606e-12 -1.82605e-11 -1.31916e-10) (-1.79606e-12 -1.82605e-11 -1.31916e-10)
800           (9.14412e-12 1.75462e-11 -4.52091e-10) (9.14412e-12 1.75462e-11 -4.52091e-10) (9.14412e-12 1.75462e-11 -4.52091e-10) (9.14412e-12 1.75462e-11 -4.52091e-10) (9.14412e-12 1.75462e-11 -4.52091e-10) (9.14412e-12 1.75462e-11 -4.52091e-10) (9.14412e-12 1.75462e-11 -4.52091e-10) (9.14412e-12 1.75462e-11 -4.52091e-10) (9.14412e-12 1.75462e-11 -4.52091e-10) (9.14412e-12 1.75462e-11 -4.52091e-10) (9.14412e-12 1.75462e-11 -4.52091e-10)
850           (-3.81185e-14 5.97736e-14 -1.24751e-10) (-3.81185e-14 5.97736e-14 -1.24751e-10) (-3.81185e-14 5.97736e-14 -1.24751e-10) (-3.81185e-14 5.97736e-14 -1.24751e-10) (-3.81185e-14 5.97736e-14 -1.24751e-10) (-3.81185e-14 5.97736e-14 -1.24751e-10) (-3.81185e-14 5.97736e-14 -1.24751e-10) (-3.81185e-14 5.97736e-14 -1.24751e-10) (-3.81185e-14 5.97736e-14 -1.24751e-10) (-3.81185e-14 5.97736e-14 -1.24751e-10) (-3.81185e-14 5.97736e-14 -1.24751e-10)
900           (1.74356e-11 1.82028e-11 -2.71729e-10) (1.74356e-11 1.82028e-11 -2.71729e-10) (1.74356e-11 1.82028e-11 -2.71729e-10) (1.74356e-11 1.82028e-11 -2.71729e-10) (1.74356e-11 1.82028e-11 -2.71729e-10) (1.74356e-11 1.82028e-11 -2.71729e-10) (1.74356e-11 1.82028e-11 -2.71729e-10) (1.74356e-11 1.82028e-11 -2.71729e-10) (1.74356e-11 1.82028e-11 -2.71729e-10) (1.74356e-11 1.82028e-11 -2.71729e-10) (1.74356e-11 1.82028e-11 -2.71729e-10)
950           (-1.89236e-11 -9.49654e-13 8.70622e-11) (-1.89236e-11 -9.49654e-13 8.70622e-11) (-1.89236e-11 -9.49654e-13 8.70622e-11) (-1.89236e-11 -9.49654e-13 8.70622e-11) (-1.89236e-11 -9.49654e-13 8.70622e-11) (-1.89236e-11 -9.49654e-13 8.70622e-11) (-1.89236e-11 -9.49654e-13 8.70622e-11) (-1.89236e-11 -9.49654e-13 8.70622e-11) (-1.89236e-11 -9.49654e-13 8.70622e-11) (-1.89236e-11 -9.49654e-13 8.70622e-11) (-1.89236e-11 -9.49654e-13 8.70622e-11)
1000          (-9.55123e-12 -1.91761e-12 -7.96134e-11) (-9.55123e-12 -1.91761e-12 -7.96134e-11) (-9.55123e-12 -1.91761e-12 -7.96134e-11) (-9.55123e-12 -1.91761e-12 -7.96134e-11) (-9.55123e-12 -1.91761e-12 -7.96134e-11) (-9.55123e-12 -1.91761e-12 -7.96134e-11) (-9.55123e-12 -1.91761e-12 -7.96134e-11) (-9.55123e-12 -1.91761e-12 -7.96134e-11) (-9.55123e-12 -1.91761e-12 -7.96134e-11) (-9.55123e-12 -1.91761e-12 -7.96134e-11) (-9.55123e-12 -1.91761e-12 -7.96134e-11)
1050          (3.06002e-11 1.12945e-11 5.72438e-12) (3.06002e-11 1.12945e-11 5.72438e-12) (3.06002e-11 1.12945e-11 5.72438e-12) (3.06002e-11 1.12945e-11 5.72438e-12) (3.06002e-11 1.12945e-11 5.72438e-12) (3.06002e-11 1.12945e-11 5.72438e-12) (3.06002e-11 1.12945e-11 5.72438e-12) (3.06002e-11 1.12945e-11 5.72438e-12) (3.06002e-11 1.12945e-11 5.72438e-12) (3.06002e-11 1.12945e-11 5.72438e-12) (3.06002e-11 1.12945e-11 5.72438e-12)
1100          (1.93728e-11 3.80844e-14 2.11133e-10) (1.93728e-11 3.80844e-14 2.11133e-10) (1.93728e-11 3.80844e-14 2.11133e-10) (1.93728e-11 3.80844e-14 2.11133e-10) (1.93728e-11 3.80844e-14 2.11133e-10) (1.93728e-11 3.80844e-14 2.11133e-10) (1.93728e-11 3.80844e-14 2.11133e-10) (1.93728e-11 3.80844e-14 2.11133e-10) (1.93728e-11 3.80844e-14 2.11133e-10) (1.93728e-11 3.80844e-14 2.11133e-10) (1.93728e-11 3.80844e-14 2.11133e-10)
1150          (-8.36021e-13 -3.38393e-13 1.14729e-10) (-8.36021e-13 -3.38393e-13 1.14729e-10) (-8.36021e-13 -3.38393e-13 1.14729e-10) (-8.36021e-13 -3.38393e-13 1.14729e-10) (-8.36021e-13 -3.38393e-13 1.14729e-10) (-8.36021e-13 -3.38393e-13 1.14729e-10) (-8.36021e-13 -3.38393e-13 1.14729e-10) (-8.36021e-13 -3.38393e-13 1.14729e-10) (-8.36021e-13 -3.38393e-13 1.14729e-10) (-8.36021e-13 -3.38393e-13 1.14729e-10) (-8.36021e-13 -3.38393e-13 1.14729e-10)
1200          (-7.7099e-14 -2.79524e-13 4.78864e-11) (-7.7099e-14 -2.79524e-13 4.78864e-11) (-7.7099e-14 -2.79524e-13 4.78864e-11) (-7.7099e-14 -2.79524e-13 4.78864e-11) (-7.7099e-14 -2.79524e-13 4.78864e-11) (-7.7099e-14 -2.79524e-13 4.78864e-11) (-7.7099e-14 -2.79524e-13 4.78864e-11) (-7.7099e-14 -2.79524e-13 4.78864e-11) (-7.7099e-14 -2.79524e-13 4.78864e-11) (-7.7099e-14 -2.79524e-13 4.78864e-11) (-7.7099e-14 -2.79524e-13 4.78864e-11)
1250          (9.37027e-13 3.99935e-13 -1.05038e-10) (9.37027e-13 3.99935e-13 -1.05038e-10) (9.37027e-13 3.99935e-13 -1.05038e-10) (9.37027e-13 3.99935e-13 -1.05038e-10) (9.37027e-13 3.99935e-13 -1.05038e-10) (9.37027e-13 3.99935e-13 -1.05038e-10) (9.37027e-13 3.99935e-13 -1.05038e-10) (9.37027e-13 3.99935e-13 -1.05038e-10) (9.37027e-13 3.99935e-13 -1.05038e-10) (9.37027e-13 3.99935e-13 -1.05038e-10) (9.37027e-13 3.99935e-13 -1.05038e-10)
1300          (-1.52442e-12 -2.10721e-13 4.82423e-11) (-1.52442e-12 -2.10721e-13 4.82423e-11) (-1.52442e-12 -2.10721e-13 4.82423e-11) (-1.52442e-12 -2.10721e-13 4.82423e-11) (-1.52442e-12 -2.10721e-13 4.82423e-11) (-1.52442e-12 -2.10721e-13 4.82423e-11) (-1.52442e-12 -2.10721e-13 4.82423e-11) (-1.52442e-12 -2.10721e-13 4.82423e-11) (-1.52442e-12 -2.10721e-13 4.82423e-11) (-1.52442e-12 -2.10721e-13 4.82423e-11) (-1.52442e-12 -2.10721e-13 4.82423e-11)
1350          (3.64782e-11 -1.91433e-12 6.32695e-11) (3.64782e-11 -1.91433e-12 6.32695e-11) (3.64782e-11 -1.91433e-12 6.32695e-11) (3.64782e-11 -1.91433e-12 6.32695e-11) (3.64782e-11 -1.91433e-12 6.32695e-11) (3.64782e-11 -1.91433e-12 6.32695e-11) (3.64782e-11 -1.91433e-12 6.32695e-11) (3.64782e-11 -1.91433e-12 6.32695e-11) (3.64782e-11 -1.91433e-12 6.32695e-11) (3.64782e-11 -1.91433e-12 6.32695e-11) (3.64782e-11 -1.91433e-12 6.32695e-11)
1400          (1.87112e-11 -7.0905e-13 -1.1102e-10) (1.87112e-11 -7.0905e-13 -1.1102e-10) (1.87112e-11 -7.0905e-13 -1.1102e-10) (1.87112e-11 -7.0905e-13 -1.1102e-10) (1.87112e-11 -7.0905e-13 -1.1102e-10) (1.87112e-11 -7.0905e-13 -1.1102e-10) (1.87112e-11 -7.0905e-13 -1.1102e-10) (1.87112e-11 -7.0905e-13 -1.1102e-10) (1.87112e-11 -7.0905e-13 -1.1102e-10) (1.87112e-11 -7.0905e-13 -1.1102e-10) (1.87112e-11 -7.0905e-13 -1.1102e-10)
1450          (-9.09435e-12 1.12707e-12 -6.65119e-11) (-9.09435e-12 1.12707e-12 -6.65119e-11) (-9.09435e-12 1.12707e-12 -6.65119e-11) (-9.09435e-12 1.12707e-12 -6.65119e-11) (-9.09435e-12 1.12707e-12 -6.65119e-11) (-9.09435e-12 1.12707e-12 -6.65119e-11) (-9.09435e-12 1.12707e-12 -6.65119e-11) (-9.09435e-12 1.12707e-12 -6.65119e-11) (-9.09435e-12 1.12707e-12 -6.65119e-11) (-9.09435e-12 1.12707e-12 -6.65119e-11) (-9.09435e-12 1.12707e-12 -6.65119e-11)
1500          (1.90865e-11 -2.43346e-13 9.19303e-11) (1.90865e-11 -2.43346e-13 9.19303e-11) (1.90865e-11 -2.43346e-13 9.19303e-11) (1.90865e-11 -2.43346e-13 9.19303e-11) (1.90865e-11 -2.43346e-13 9.19303e-11) (1.90865e-11 -2.43346e-13 9.19303e-11) (1.90865e-11 -2.43346e-13 9.19303e-11) (1.90865e-11 -2.43346e-13 9.19303e-11) (1.90865e-11 -2.43346e-13 9.19303e-11) (1.90865e-11 -2.43346e-13 9.19303e-11) (1.90865e-11 -2.43346e-13 9.19303e-11)
1550          (9.48495e-13 7.68415e-13 1.32e-10) (9.48495e-13 7.68415e-13 1.32e-10) (9.48495e-13 7.68415e-13 1.32e-10) (9.48495e-13 7.68415e-13 1.32e-10) (9.48495e-13 7.68415e-13 1.32e-10) (9.48495e-13 7.68415e-13 1.32e-10) (9.48495e-13 7.68415e-13 1.32e-10) (9.48495e-13 7.68415e-13 1.32e-10) (9.48495e-13 7.68415e-13 1.32e-10) (9.48495e-13 7.68415e-13 1.32e-10) (9.48495e-13 7.68415e-13 1.32e-10)
1600          (-1.56716e-13 -1.98563e-11 -1.67871e-11) (-1.56716e-13 -1.98563e-11 -1.67871e-11) (-1.56716e-13 -1.98563e-11 -1.67871e-11) (-1.56716e-13 -1.98563e-11 -1.67871e-11) (-1.56716e-13 -1.98563e-11 -1.67871e-11) (-1.56716e-13 -1.98563e-11 -1.67871e-11) (-1.56716e-13 -1.98563e-11 -1.67871e-11) (-1.56716e-13 -1.98563e-11 -1.67871e-11) (-1.56716e-13 -1.98563e-11 -1.67871e-11) (-1.56716e-13 -1.98563e-11 -1.67871e-11) (-1.56716e-13 -1.98563e-11 -1.67871e-11)
1650          (-2.08552e-11 -1.91027e-11 1.10902e-10) (-2.08552e-11 -1.91027e-11 1.10902e-10) (-2.08552e-11 -1.91027e-11 1.10902e-10) (-2.08552e-11 -1.91027e-11 1.10902e-10) (-2.08552e-11 -1.91027e-11 1.10902e-10) (-2.08552e-11 -1.91027e-11 1.10902e-10) (-2.08552e-11 -1.91027e-11 1.10902e-10) (-2.08552e-11 -1.91027e-11 1.10902e-10) (-2.08552e-11 -1.91027e-11 1.10902e-10) (-2.08552e-11 -1.91027e-11 1.10902e-10) (-2.08552e-11 -1.91027e-11 1.10902e-10)
1700          (2.115e-12 1.91848e-11 8.25718e-11) (2.115e-12 1.91848e-11 8.25718e-11) (2.115e-12 1.91848e-11 8.25718e-11) (2.115e-12 1.91848e-11 8.25718e-11) (2.115e-12 1.91848e-11 8.25718e-11) (2.115e-12 1.91848e-11 8.25718e-11) (2.115e-12 1.91848e-11 8.25718e-11) (2.115e-12 1.91848e-11 8.25718e-11) (2.115e-12 1.91848e-11 8.25718e-11) (2.115e-12 1.91848e-11 8.25718e-11) (2.115e-12 1.91848e-11 8.25718e-11)
1750          (-1.77046e-11 -2.15667e-11 1.44746e-10) (-1.77046e-11 -2.15667e-11 1.44746e-10) (-1.77046e-11 -2.15667e-11 1.44746e-10) (-1.77046e-11 -2.15667e-11 1.44746e-10) (-1.77046e-11 -2.15667e-11 1.44746e-10) (-1.77046e-11 -2.15667e-11 1.44746e-10) (-1.77046e-11 -2.15667e-11 1.44746e-10) (-1.77046e-11 -2.15667e-11 1.44746e-10) (-1.77046e-11 -2.15667e-11 1.44746e-10) (-1.77046e-11 -2.15667e-11 1.44746e-10) (-1.77046e-11 -2.15667e-11 1.44746e-10)
1800          (-1.91544e-11 -1.06093e-12 2.74357e-11) (-1.91544e-11 -1.06093e-12 2.74357e-11) (-1.91544e-11 -1.06093e-12 2.74357e-11) (-1.91544e-11 -1.06093e-12 2.74357e-11) (-1.91544e-11 -1.06093e-12 2.74357e-11) (-1.91544e-11 -1.06093e-12 2.74357e-11) (-1.91544e-11 -1.06093e-12 2.74357e-11) (-1.91544e-11 -1.06093e-12 2.74357e-11) (-1.91544e-11 -1.06093e-12 2.74357e-11) (-1.91544e-11 -1.06093e-12 2.74357e-11) (-1.91544e-11 -1.06093e-12 2.74357e-11)
1850          (1.7959e-11 -1.12359e-12 6.25172e-12) (1.7959e-11 -1.12359e-12 6.25172e-12) (1.7959e-11 -1.12359e-12 6.25172e-12) (1.7959e-11 -1.12359e-12 6.25172e-12) (1.7959e-11 -1.12359e-12 6.25172e-12) (1.7959e-11 -1.12359e-12 6.25172e-12) (1.7959e-11 -1.12359e-12 6.25172e-12) (1.7959e-11 -1.12359e-12 6.25172e-12) (1.7959e-11 -1.12359e-12 6.25172e-12) (1.7959e-11 -1.12359e-12 6.25172e-12) (1.7959e-11 -1.12359e-12 6.25172e-12)
1900          (1.72944e-11 -1.67654e-12 -1.23031e-10) (1.72944e-11 -1.67654e-12 -1.23031e-10) (1.72944e-11 -1.67654e-12 -1.23031e-10) (1.72944e-11 -1.67654e-12 -1.23031e-10) (1.72944e-11 -1.67654e-12 -1.23031e-10) (1.72944e-11 -1.67654e-12 -1.23031e-10) (1.72944e-11 -1.67654e-12 -1.23031e-10) (1.72944e-11 -1.67654e-12 -1.23031e-10) (1.72944e-11 -1.67654e-12 -1.23031e-10) (1.72944e-11 -1.67654e-12 -1.23031e-10) (1.72944e-11 -1.67654e-12 -1.23031e-10)
1950          (1.81523e-12 2.09406e-11 -1.68763e-11) (1.81523e-12 2.09406e-11 -1.68763e-11) (1.81523e-12 2.09406e-11 -1.68763e-11) (1.81523e-12 2.09406e-11 -1.68763e-11) (1.81523e-12 2.09406e-11 -1.68763e-11) (1.81523e-12 2.09406e-11 -1.68763e-11) (1.81523e-12 2.09406e-11 -1.68763e-11) (1.81523e-12 2.09406e-11 -1.68763e-11) (1.81523e-12 2.09406e-11 -1.68763e-11) (1.81523e-12 2.09406e-11 -1.68763e-11) (1.81523e-12 2.09406e-11 -1.68763e-11)
2000          (-1.05931e-13 9.25365e-12 -1.07458e-10) (-1.05931e-13 9.25365e-12 -1.07458e-10) (-1.05931e-13 9.25365e-12 -1.07458e-10) (-1.05931e-13 9.25365e-12 -1.07458e-10) (-1.05931e-13 9.25365e-12 -1.07458e-10) (-1.05931e-13 9.25365e-12 -1.07458e-10) (-1.05931e-13 9.25365e-12 -1.07458e-10) (-1.05931e-13 9.25365e-12 -1.07458e-10) (-1.05931e-13 9.25365e-12 -1.07458e-10) (-1.05931e-13 9.25365e-12 -1.07458e-10) (-1.05931e-13 9.25365e-12 -1.07458e-10)
2050          (2.25066e-13 -1.70369e-11 3.75202e-11) (2.25066e-13 -1.70369e-11 3.75202e-11) (2.25066e-13 -1.70369e-11 3.75202e-11) (2.25066e-13 -1.70369e-11 3.75202e-11) (2.25066e-13 -1.70369e-11 3.75202e-11) (2.25066e-13 -1.70369e-11 3.75202e-11) (2.25066e-13 -1.70369e-11 3.75202e-11) (2.25066e-13 -1.70369e-11 3.75202e-11) (2.25066e-13 -1.70369e-11 3.75202e-11) (2.25066e-13 -1.70369e-11 3.75202e-11) (2.25066e-13 -1.70369e-11 3.75202e-11)
2100          (-1.89648e-12 -1.16001e-14 2.60523e-11) (-1.89648e-12 -1.16001e-14 2.60523e-11) (-1.89648e-12 -1.16001e-14 2.60523e-11) (-1.89648e-12 -1.16001e-14 2.60523e-11) (-1.89648e-12 -1.16001e-14 2.60523e-11) (-1.89648e-12 -1.16001e-14 2.60523e-11) (-1.89648e-12 -1.16001e-14 2.60523e-11) (-1.89648e-12 -1.16001e-14 2.60523e-11) (-1.89648e-12 -1.16001e-14 2.60523e-11) (-1.89648e-12 -1.16001e-14 2.60523e-11) (-1.89648e-12 -1.16001e-14 2.60523e-11)
2150          (-1.99435e-11 2.79993e-13 1.76683e-10) (-1.99435e-11 2.79993e-13 1.76683e-10) (-1.99435e-11 2.79993e-13 1.76683e-10) (-1.99435e-11 2.79993e-13 1.76683e-10) (-1.99435e-11 2.79993e-13 1.76683e-10) (-1.99435e-11 2.79993e-13 1.76683e-10) (-1.99435e-11 2.79993e-13 1.76683e-10) (-1.99435e-11 2.79993e-13 1.76683e-10) (-1.99435e-11 2.79993e-13 1.76683e-10) (-1.99435e-11 2.79993e-13 1.76683e-10) (-1.99435e-11 2.79993e-13 1.76683e-10)
2200          (2.19339e-13 9.81416e-12 -2.11036e-10) (2.19339e-13 9.81416e-12 -2.11036e-10) (2.19339e-13 9.81416e-12 -2.11036e-10) (2.19339e-13 9.81416e-12 -2.11036e-10) (2.19339e-13 9.81416e-12 -2.11036e-10) (2.19339e-13 9.81416e-12 -2.11036e-10) (2.19339e-13 9.81416e-12 -2.11036e-10) (2.19339e-13 9.81416e-12 -2.11036e-10) (2.19339e-13 9.81416e-12 -2.11036e-10) (2.19339e-13 9.81416e-12 -2.11036e-10) (2.19339e-13 9.81416e-12 -2.11036e-10)
2250          (8.20098e-13 -6.83442e-14 -9.79126e-11) (8.20098e-13 -6.83442e-14 -9.79126e-11) (8.20098e-13 -6.83442e-14 -9.79126e-11) (8.20098e-13 -6.83442e-14 -9.79126e-11) (8.20098e-13 -6.83442e-14 -9.79126e-11) (8.20098e-13 -6.83442e-14 -9.79126e-11) (8.20098e-13 -6.83442e-14 -9.79126e-11) (8.20098e-13 -6.83442e-14 -9.79126e-11) (8.20098e-13 -6.83442e-14 -9.79126e-11) (8.20098e-13 -6.83442e-14 -9.79126e-11) (8.20098e-13 -6.83442e-14 -9.79126e-11)
2300          (2.08178e-11 1.71165e-11 -1.98889e-10) (2.08178e-11 1.71165e-11 -1.98889e-10) (2.08178e-11 1.71165e-11 -1.98889e-10) (2.08178e-11 1.71165e-11 -1.98889e-10) (2.08178e-11 1.71165e-11 -1.98889e-10) (2.08178e-11 1.71165e-11 -1.98889e-10) (2.08178e-11 1.71165e-11 -1.98889e-10) (2.08178e-11 1.71165e-11 -1.98889e-10) (2.08178e-11 1.71165e-11 -1.98889e-10) (2.08178e-11 1.71165e-11 -1.98889e-10) (2.08178e-11 1.71165e-11 -1.98889e-10)
2350          (-5.07859e-15 2.11664e-11 4.59731e-11) (-5.07859e-15 2.11664e-11 4.59731e-11) (-5.07859e-15 2.11664e-11 4.59731e-11) (-5.07859e-15 2.11664e-11 4.59731e-11) (-5.07859e-15 2.11664e-11 4.59731e-11) (-5.07859e-15 2.11664e-11 4.59731e-11) (-5.07859e-15 2.11664e-11 4.59731e-11) (-5.07859e-15 2.11664e-11 4.59731e-11) (-5.07859e-15 2.11664e-11 4.59731e-11) (-5.07859e-15 2.11664e-11 4.59731e-11) (-5.07859e-15 2.11664e-11 4.59731e-11)
2400          (3.53579e-12 -1.66447e-12 2.51468e-10) (3.53579e-12 -1.66447e-12 2.51468e-10) (3.53579e-12 -1.66447e-12 2.51468e-10) (3.53579e-12 -1.66447e-12 2.51468e-10) (3.53579e-12 -1.66447e-12 2.51468e-10) (3.53579e-12 -1.66447e-12 2.51468e-10) (3.53579e-12 -1.66447e-12 2.51468e-10) (3.53579e-12 -1.66447e-12 2.51468e-10) (3.53579e-12 -1.66447e-12 2.51468e-10) (3.53579e-12 -1.66447e-12 2.51468e-10) (3.53579e-12 -1.66447e-12 2.51468e-10)
2450          (-1.25232e-13 3.79557e-11 1.19156e-10) (-1.25232e-13 3.79557e-11 1.19156e-10) (-1.25232e-13 3.79557e-11 1.19156e-10) (-1.25232e-13 3.79557e-11 1.19156e-10) (-1.25232e-13 3.79557e-11 1.19156e-10) (-1.25232e-13 3.79557e-11 1.19156e-10) (-1.25232e-13 3.79557e-11 1.19156e-10) (-1.25232e-13 3.79557e-11 1.19156e-10) (-1.25232e-13 3.79557e-11 1.19156e-10) (-1.25232e-13 3.79557e-11 1.19156e-10) (-1.25232e-13 3.79557e-11 1.19156e-10)
2500          (-7.86429e-13 -1.93205e-13 -1.95293e-10) (-7.86429e-13 -1.93205e-13 -1.95293e-10) (-7.86429e-13 -1.93205e-13 -1.95293e-10) (-7.86429e-13 -1.93205e-13 -1.95293e-10) (-7.86429e-13 -1.93205e-13 -1.95293e-10) (-7.86429e-13 -1.93205e-13 -1.95293e-10) (-7.86429e-13 -1.93205e-13 -1.95293e-10) (-7.86429e-13 -1.93205e-13 -1.95293e-10) (-7.86429e-13 -1.93205e-13 -1.95293e-10) (-7.86429e-13 -1.93205e-13 -1.95293e-10) (-7.86429e-13 -1.93205e-13 -1.95293e-10)
2550          (2.05263e-13 -2.2206e-12 4.01043e-11) (2.05263e-13 -2.2206e-12 4.01043e-11) (2.05263e-13 -2.2206e-12 4.01043e-11) (2.05263e-13 -2.2206e-12 4.01043e-11) (2.05263e-13 -2.2206e-12 4.01043e-11) (2.05263e-13 -2.2206e-12 4.01043e-11) (2.05263e-13 -2.2206e-12 4.01043e-11) (2.05263e-13 -2.2206e-12 4.01043e-11) (2.05263e-13 -2.2206e-12 4.01043e-11) (2.05263e-13 -2.2206e-12 4.01043e-11) (2.05263e-13 -2.2206e-12 4.01043e-11)
2600          (1.71429e-13 -1.75375e-11 9.29979e-12) (1.71429e-13 -1.75375e-11 9.29979e-12) (1.71429e-13 -1.75375e-11 9.29979e-12) (1.71429e-13 -1.75375e-11 9.29979e-12) (1.71429e-13 -1.75375e-11 9.29979e-12) (1.71429e-13 -1.75375e-11 9.29979e-12) (1.71429e-13 -1.75375e-11 9.29979e-12) (1.71429e-13 -1.75375e-11 9.29979e-12) (1.71429e-13 -1.75375e-11 9.29979e-12) (1.71429e-13 -1.75375e-11 9.29979e-12) (1.71429e-13 -1.75375e-11 9.29979e-12)
2650          (2.74836e-13 2.61087e-13 1.51236e-10) (2.74836e-13 2.61087e-13 1.51236e-10) (2.74836e-13 2.61087e-13 1.51236e-10) (2.74836e-13 2.61087e-13 1.51236e-10) (2.74836e-13 2.61087e-13 1.51236e-10) (2.74836e-13 2.61087e-13 1.51236e-10) (2.74836e-13 2.61087e-13 1.51236e-10) (2.74836e-13 2.61087e-13 1.51236e-10) (2.74836e-13 2.61087e-13 1.51236e-10) (2.74836e-13 2.61087e-13 1.51236e-10) (2.74836e-13 2.61087e-13 1.51236e-10)
2700          (-8.54756e-12 -9.52801e-12 -1.73684e-10) (-8.54756e-12 -9.52801e-12 -1.73684e-10) (-8.54756e-12 -9.52801e-12 -1.73684e-10) (-8.54756e-12 -9.52801e-12 -1.73684e-10) (-8.54756e-12 -9.52801e-12 -1.73684e-10) (-8.54756e-12 -9.52801e-12 -1.73684e-10) (-8.54756e-12 -9.52801e-12 -1.73684e-10) (-8.54756e-12 -9.52801e-12 -1.73684e-10) (-8.54756e-12 -9.52801e-12 -1.73684e-10) (-8.54756e-12 -9.52801e-12 -1.73684e-10) (-8.54756e-12 -9.52801e-12 -1.73684e-10)
2750          (6.98845e-14 -3.2936e-14 9.25363e-11) (6.98845e-14 -3.2936e-14 9.25363e-11) (6.98845e-14 -3.2936e-14 9.25363e-11) (6.98845e-14 -3.2936e-14 9.25363e-11) (6.98845e-14 -3.2936e-14 9.25363e-11) (6.98845e-14 -3.2936e-14 9.25363e-11) (6.98845e-14 -3.2936e-14 9.25363e-11) (6.98845e-14 -3.2936e-14 9.25363e-11) (6.98845e-14 -3.2936e-14 9.25363e-11) (6.98845e-14 -3.2936e-14 9.25363e-11) (6.98845e-14 -3.2936e-14 9.25363e-11)
2800          (-2.13715e-13 -1.92467e-11 3.33707e-10) (-2.13715e-13 -1.92467e-11 3.33707e-10) (-2.13715e-13 -1.92467e-11 3.33707e-10) (-2.13715e-13 -1.92467e-11 3.33707e-10) (-2.13715e-13 -1.92467e-11 3.33707e-10) (-2.13715e-13 -1.92467e-11 3.33707e-10) (-2.13715e-13 -1.92467e-11 3.33707e-10) (-2.13715e-13 -1.92467e-11 3.33707e-10) (-2.13715e-13 -1.92467e-11 3.33707e-10) (-2.13715e-13 -1.92467e-11 3.33707e-10) (-2.13715e-13 -1.92467e-11 3.33707e-10)
2850          (2.09977e-11 1.61507e-12 1.95487e-10) (2.09977e-11 1.61507e-12 1.95487e-10) (2.09977e-11 1.61507e-12 1.95487e-10) (2.09977e-11 1.61507e-12 1.95487e-10) (2.09977e-11 1.61507e-12 1.95487e-10) (2.09977e-11 1.61507e-12 1.95487e-10) (2.09977e-11 1.61507e-12 1.95487e-10) (2.09977e-11 1.61507e-12 1.95487e-10) (2.09977e-11 1.61507e-12 1.95487e-10) (2.09977e-11 1.61507e-12 1.95487e-10) (2.09977e-11 1.61507e-12 1.95487e-10)
2900          (1.90009e-11 -1.81002e-13 2.01578e-10) (1.90009e-11 -1.81002e-13 2.01578e-10) (1.90009e-11 -1.81002e-13 2.01578e-10) (1.90009e-11 -1.81002e-13 2.01578e-10) (1.90009e-11 -1.81002e-13 2.01578e-10) (1.90009e-11 -1.81002e-13 2.01578e-10) (1.90009e-11 -1.81002e-13 2.01578e-10) (1.90009e-11 -1.81002e-13 2.01578e-10) (1.90009e-11 -1.81002e-13 2.01578e-10) (1.90009e-11 -1.81002e-13 2.01578e-10) (1.90009e-11 -1.81002e-13 2.01578e-10)
2950          (-1.82824e-11 2.9694e-11 -2.63054e-10) (-1.82824e-11 2.9694e-11 -2.63054e-10) (-1.82824e-11 2.9694e-11 -2.63054e-10) (-1.82824e-11 2.9694e-11 -2.63054e-10) (-1.82824e-11 2.9694e-11 -2.63054e-10) (-1.82824e-11 2.9694e-11 -2.63054e-10) (-1.82824e-11 2.9694e-11 -2.63054e-10) (-1.82824e-11 2.9694e-11 -2.63054e-10) (-1.82824e-11 2.9694e-11 -2.63054e-10) (-1.82824e-11 2.9694e-11 -2.63054e-10) (-1.82824e-11 2.9694e-11 -2.63054e-10)
3000          (-9.95964e-13 -9.88561e-12 -1.13538e-10) (-9.95964e-13 -9.88561e-12 -1.13538e-10) (-9.95964e-13 -9.88561e-12 -1.13538e-10) (-9.95964e-13 -9.88561e-12 -1.13538e-10) (-9.95964e-13 -9.88561e-12 -1.13538e-10) (-9.95964e-13 -9.88561e-12 -1.13538e-10) (-9.95964e-13 -9.88561e-12 -1.13538e-10) (-9.95964e-13 -9.88561e-12 -1.13538e-10) (-9.95964e-13 -9.88561e-12 -1.13538e-10) (-9.95964e-13 -9.88561e-12 -1.13538e-10) (-9.95964e-13 -9.88561e-12 -1.13538e-10)
3050          (-1.02662e-13 1.04255e-11 -1.53403e-10) (-1.02662e-13 1.04255e-11 -1.53403e-10) (-1.02662e-13 1.04255e-11 -1.53403e-10) (-1.02662e-13 1.04255e-11 -1.53403e-10) (-1.02662e-13 1.04255e-11 -1.53403e-10) (-1.02662e-13 1.04255e-11 -1.53403e-10) (-1.02662e-13 1.04255e-11 -1.53403e-10) (-1.02662e-13 1.04255e-11 -1.53403e-10) (-1.02662e-13 1.04255e-11 -1.53403e-10) (-1.02662e-13 1.04255e-11 -1.53403e-10) (-1.02662e-13 1.04255e-11 -1.53403e-10)
3100          (5.30141e-13 2.00852e-12 -2.36302e-11) (5.30141e-13 2.00852e-12 -2.36302e-11) (5.30141e-13 2.00852e-12 -2.36302e-11) (5.30141e-13 2.00852e-12 -2.36302e-11) (5.30141e-13 2.00852e-12 -2.36302e-11) (5.30141e-13 2.00852e-12 -2.36302e-11) (5.30141e-13 2.00852e-12 -2.36302e-11) (5.30141e-13 2.00852e-12 -2.36302e-11) (5.30141e-13 2.00852e-12 -2.36302e-11) (5.30141e-13 2.00852e-12 -2.36302e-11) (5.30141e-13 2.00852e-12 -2.36302e-11)
3150          (1.99074e-11 -4.98597e-14 2.42047e-10) (1.99074e-11 -4.98597e-14 2.42047e-10) (1.99074e-11 -4.98597e-14 2.42047e-10) (1.99074e-11 -4.98597e-14 2.42047e-10) (1.99074e-11 -4.98597e-14 2.42047e-10) (1.99074e-11 -4.98597e-14 2.42047e-10) (1.99074e-11 -4.98597e-14 2.42047e-10) (1.99074e-11 -4.98597e-14 2.42047e-10) (1.99074e-11 -4.98597e-14 2.42047e-10) (1.99074e-11 -4.98597e-14 2.42047e-10) (1.99074e-11 -4.98597e-14 2.42047e-10)
3200          (-1.69689e-12 3.9971e-14 1.40493e-10) (-1.69689e-12 3.9971e-14 1.40493e-10) (-1.69689e-12 3.9971e-14 1.40493e-10) (-1.69689e-12 3.9971e-14 1.40493e-10) (-1.69689e-12 3.9971e-14 1.40493e-10) (-1.69689e-12 3.9971e-14 1.40493e-10) (-1.69689e-12 3.9971e-14 1.40493e-10) (-1.69689e-12 3.9971e-14 1.40493e-10) (-1.69689e-12 3.9971e-14 1.40493e-10) (-1.69689e-12 3.9971e-14 1.40493e-10) (-1.69689e-12 3.9971e-14 1.40493e-10)
3250          (9.51139e-12 1.92693e-12 8.58457e-12) (9.51139e-12 1.92693e-12 8.58457e-12) (9.51139e-12 1.92693e-12 8.58457e-12) (9.51139e-12 1.92693e-12 8.58457e-12) (9.51139e-12 1.92693e-12 8.58457e-12) (9.51139e-12 1.92693e-12 8.58457e-12) (9.51139e-12 1.92693e-12 8.58457e-12) (9.51139e-12 1.92693e-12 8.58457e-12) (9.51139e-12 1.92693e-12 8.58457e-12) (9.51139e-12 1.92693e-12 8.58457e-12) (9.51139e-12 1.92693e-12 8.58457e-12)
3300          (7.70604e-13 -1.83125e-11 1.08255e-10) (7.70604e-13 -1.83125e-11 1.08255e-10) (7.70604e-13 -1.83125e-11 1.08255e-10) (7.70604e-13 -1.83125e-11 1.08255e-10) (7.70604e-13 -1.83125e-11 1.08255e-10) (7.70604e-13 -1.83125e-11 1.08255e-10) (7.70604e-13 -1.83125e-11 1.08255e-10) (7.70604e-13 -1.83125e-11 1.08255e-10) (7.70604e-13 -1.83125e-11 1.08255e-10) (7.70604e-13 -1.83125e-11 1.08255e-10) (7.70604e-13 -1.83125e-11 1.08255e-10)