# Probe 0 (0.0015 0.0015 0)
# Probe 1 (0.0015 0.0015 0.01)
# Probe 2 (0.0015 0.0015 0.02)
# Probe 3 (0.0015 0.0015 0.03)
# Probe 4 (0.0015 0.0015 0.04)
# Probe 5 (0.0015 0.0015 0.05)
# Probe 6 (0.0015 0.0015 0.06)
# Probe 7 (0.0015 0.0015 0.07)
# Probe 8 (0.0015 0.0015 0.08)
# Probe 9 (0.0015 0.0015 0.09)
# Probe 10 (0.0015 0.0015 0.1)
# Time        0             1             2             3             4             5             6             7             8             9             10           
50            31514.7       63595.8       67828.4       68158.1       68195         68327.8       68483.9       68484.9       68485.9       69041.7       177833       
100           27620.8       59510         67037.4       68069.8       68203         68329.9       68481.6       68484.9       68494.3       70725.1       191620       
150           25490.5       56010.4       65928.2       67876.4       68190.8       68328.2       68478.2       68485         68526.2       73652.2       197996       
200           24114.7       53101.8       64653.4       67568.5       68147.4       68321.6       68474.1       68485.5       68606.2       77560.5       201827       
250           23137.3       50676.9       63321.4       67157.1       68065.2       68307         68469.6       68487.2       68762.3       82057         204450       
300           22398.8       48632.3       61997.7       66662.6       67940.6       68281.2       68465         68491.3       69021.4       86784.4       206390       
350           21816.2       46884.3       60715.3       66105.3       67772.9       68241.1       68460.1       68500         69402.9       91492.1       207900       
400           21341.8       45371.6       59491.6       65504.6       67564.6       68184.4       68454.7       68515.8       69918.6       96030         209118       
450           20945.8       44047.6       58333.5       64876.2       67319.7       68109.9       68448.7       68541.9       70571.6       100322        210127       
500           20608.9       42877.2       57242         64232.8       67042.9       68016.9       68441.8       68581.8       71357.9       104340        210982       
550           20317.8       41833.6       56215.5       63583.9       66739.4       67905.5       68433.9       68639.1       72268.4       108083        211717       
600           20062.9       40895.7       55250.6       62936.5       66413.9       67776.5       68424.8       68717.2       73290.1       111561        212358       
650           19837.3       40047         54343.1       62295.8       66071.1       67630.9       68414.4       68819.3       74408         114792        212925       
700           19635.8       39274.5       53489.1       61665.4       65714.8       67470         68403         68948.2       75607.8       117796        213429       
750           19454.5       38567.5       52684.3       61047.7       65348.6       67295.4       68390.7       69106.2       76873.6       120594        213882       
800           19290.1       37917.3       51924.9       60444.5       64975.4       67108.7       68378         69294.5       78190.6       123204        214292       
850           19140.2       37316.7       51207.1       59856.6       64597.7       66911.4       68365.3       69514.2       79545.8       125644        214665       
900           19002.8       36759.7       50527.7       59284.7       64217.5       66704.8       68353.1       69765.7       80928         127930        215007       
950           18876.3       36241.4       49883.6       58729         63836.6       66490.3       68342.1       70048.8       82327.4       130076        215322       
1000          18759.2       35757.4       49272         58189.5       63456.5       66269.5       68333         70363.2       83735.6       132095        215612       
1050          18650.5       35304.2       48690.6       57666         63078.4       66043.5       68326.4       70707.9       85145.4       133998        215882       
1100          18549.2       34878.6       48136.9       57158.4       62703.2       65813.5       68323         71081.7       86551.1       135794        216133       
1150          18454.6       34478         47609.1       56666.2       62331.9       65580.6       68323.5       71483.2       87947.6       137494        216368       
1200          18365.8       34100         47105         56188.8       61965         65345.9       68328.5       71910.8       89331.2       139105        216588       
1250          18282.4       33742.6       46623.4       55726.2       61603.2       65110.4       68338.7       72362.7       90698.5       140634        216794       
1300          18203.8       33403.9       46162.3       55277.5       61246.9       64874.6       68354.5       72837.2       92047.1       142088        216989       
1350          18129.5       33082.4       45720.6       54842.4       60896.4       64639.5       68376.6       73332.4       93375         143473        217172       
1400          18059.3       32776.7       45297         54420.4       60552.1       64406         68405.2       73846.2       94680.5       144793        217346       
1450          17992.7       32485.7       44890.4       54011.2       60214.3       64174.5       68440.8       74377         95962.7       146053        217510       
1500          17929.4       32207.9       44499.5       53614.1       59883.1       63945.5       68483.7       74923         97220.8       147258        217667       
1550          17869.3       31942.8       44123.7       53229         59558.7       63719.9       68534.1       75482.2       98454.1       148412        217815       
1600          17811.9       31689.2       43761.9       52855.2       59241.3       63498         68592.1       76053.1       99662.4       149517        217957       
1650          17757.2       31446.3       43413.3       52492.4       58930.8       63280.1       68658         76634.1       100846        150577        218092       
1700          17704.9       31213.4       43077.2       52140.2       58627.4       63066.7       68731.6       77223.7       102003        151596        218221       
1750          17654.8       30989.9       42752.9       51798.3       58331.2       62858.1       68813.2       77820.4       103136        152575        218345       
1800          17606.8       30775.2       42439.9       51466.3       58042.2       62654.7       68902.6       78422.8       104244        153516        218463       
1850          17560.9       30568.8       42137.6       51144         57760.4       62456.7       68999.7       79029.8       105328        154423        218577       
1900          17516.7       30370.1       41845.2       50831         57485.9       62264.2       69104.5       79640.3       106387        155297        218686       
1950          17474.3       30178.7       41562.7       50527.2       57218.6       62077.8       69216.8       80253         107423        156140        218790       
2000          17433.5       29994.4       41289.6       50232.4       56958.9       61897.6       69336.4       80866.9       108435        156954        218891       
2050          17394.2       29816.4       41025         49945.9       56706.1       61723.4       69463.2       81481.5       109424        157740        218988       
2100          17356.3       29644.6       40768.7       49667.7       56460.4       61555.4       69596.9       82095.5       110390        158499        219081       
2150          17319.8       29478.7       40520.6       49397.6       56222         61393.9       69737.3       82708.4       111335        159234        219171       
2200          17284.6       29318.3       40280.2       49135.5       55990.7       61238.8       69884.2       83319.5       112258        159945        219258       
2250          17250.6       29163.4       40047.4       48881.2       55766.7       61090.3       70037.2       83928.3       113160        160634        219342       
2300          17217.7       29013.4       39821.6       48634.3       55549.6       60948.3       70196.2       84533.9       114042        161301        219424       
2350          17186         28868.2       39602.8       48394.8       55339.4       60812.9       70360.9       85136.1       114904        161948        219502       
2400          17155.3       28727.8       39390.7       48162.6       55136.4       60684.1       70530.9       85734.3       115746        162575        219578       
2450          17125.6       28591.8       39185.1       47937.5       54940.2       60561.9       70706.1       86328.2       116569        163184        219652       
2500          17096.8       28460         38985.8       47719.3       54750.9       60446.2       70886.2       86917.4       117374        163774        219723       
2550          17069         28332.3       38792.4       47507.8       54568.3       60337         71070.9       87501.5       118161        164348        219792       
2600          17042         28208.5       38604.8       47302.8       54392.2       60234.1       71260         88080.3       118930        164906        219859       
2650          17015.9       28088.5       38422.8       47104.2       54222.7       60137.5       71453.1       88653.5       119682        165448        219924       
2700          16990.6       27972         38246.3       46911.8       54059.5       60047.2       71650.1       89220.9       120417        165974        219987       
2750          16966         27859.1       38075.1       46725.6       53902.7       59963         71850.6       89782.4       121136        166487        220049       
2800          16942.2       27749.5       37909         46545.4       53752.2       59884.9       72054.4       90337.6       121839        166985        220108       
2850          16919.1       27643.7       37748.8       46372.2       53608.8       59812.7       72261.3       90886.7       122527        167471        220166       
2900          16896.8       27541.1       37593.7       46204.9       53471.4       59746.7       72471         91429.5       123200        167943        220223       
2950          16875.2       27441.5       37443.2       46043.1       53339.9       59686.5       72683.3       91965.8       123858        168403        220277       
3000          16854.2       27344.9       37297.3       45886.7       53214.2       59631.9       72898.1       92495.6       124502        168852        220331       
3050          16833.8       27251.2       37155.8       45735.7       53094.1       59582.9       73115         93018.9       125132        169288        220383       
3100          16814         27160.2       37018.7       45589.9       52979.6       59539.3       73334         93535.5       125748        169714        220433       
3150          16794.8       27071.9       36885.9       45449.3       52870.6       59501.1       73554.7       94045.5       126352        170129        220482       
3200          16776.1       26986.2       36757.2       45313.8       52767         59468         73777.1       94548.9       126942        170534        220530       
3250          16758.1       26903.1       36632.6       45183.2       52668.8       59440         74000.9       95045.6       127521        170929        220577       
3300          16740.7       26823.6       36513.6       45059.2       52577         59417.1       74226         95535.7       128087        171315        220623       
3350          16723.8       26745.7       36397.5       44938.9       52489.5       59399         74452.3       96019.4       128641        171691        220667       
3400          16707.1       26669.3       36283.8       44822         52406.1       59385.6       74679.6       96496.4       129184        172058        220710       
3450          16691.4       26597.7       36177.5       44713.4       52330.3       59376.9       74907.6       96966.9       129715        172417        220753       
3500          16675.9       26526.4       36072         44606.4       52257.1       59372.5       75136.3       97430.9       130236        172767        220794       
3550          16661         26458.4       35971.8       44505.5       52189.9       59372.6       75365.6       97888.4       130746        173109        220834       
3600          16646.6       26392.6       35875         44408.7       52127         59376.9       75595.4       98339.6       131245        173443        220874       
3650          16632.6       26329         35781.9       44316.6       52068.9       59385.4       75825.5       98784.7       131735        173770        220912       
3700          16619.2       26268         35693.2       44229.8       52016         59397.9       76055.9       99223.8       132215        174089        220949       
3750          16606.2       26208.9       35607.5       44146.7       51967         59414.4       76286.5       99656.6       132686        174402        220986       
3800          16593.6       26151.7       35524.8       44067.3       51922         59434.6       76517         100083        133147        174707        221022       
3850          16581.4       26096.3       35445         43991.5       51880.9       59458.3       76747.4       100504        133599        175006        221057       
3900          16569.6       26042.7       35368.1       43919.2       51843.6       59485.5       76977.6       100918        134042        175298        221091       
3950          16558.1       25990.9       35294         43850.4       51810         59516.1       77207.4       101327        134476        175583        221125       
4000          16547         25940.7       35222.7       43785         51780         59549.8       77436.9       101730        134902        175863        221157       
4050          16536.3       25892.3       35154.1       43723         51753.6       59586.7       77666         102126        135319        176136        221189       
4100          16525.9       25845.5       35088.2       43664.3       51730.6       59626.6       77894.5       102518        135729        176403        221220       
4150          16515.9       25800.2       35024.9       43608.8       51711         59669.3       78122.4       102903        136130        176665        221251       
4200          16506.1       25756.6       34964.2       43556.5       51694.7       59714.9       78349.6       103283        136524        176921        221281       
4250          16496.8       25714.5       34906         43507.3       51681.6       59763.1       78576.1       103658        136910        177172        221310       
4300          16487.7       25673.9       34850.3       43461.1       51671.7       59813.9       78801.8       104027        137289        177417        221339       
4350          16478.9       25634.8       34797         43418         51664.8       59867.2       79026.6       104390        137661        177658        221367       
4400          16470.5       25597.2       34746         43377.7       51660.8       59923         79250.6       104749        138025        177893        221394       
4450          16462.5       25561.7       34698.6       43341.2       51659.8       59980.4       79473.9       105103        138384        178124        221421       
4500          16454.7       25527.4       34652.9       43307.1       51661.5       60040.3       79695.9       105452        138735        178351        221447       
4550          16447.2       25494.3       34609.5       43275.7       51665.9       60102.4       79917         105795        139080        178572        221473       
4600          16440         25462.6       34568.1       43246.8       51673         60166.7       80136.9       106134        139419        178789        221498       
4650          16433.1       25432.2       34528.9       43220.5       51682.6       60232.9       80355.8       106468        139752        179002        221523       
4700          16426.4       25403         34491.7       43196.8       51694.8       60301         80573.5       106797        140078        179211        221547       
4750          16420         25375.1       34456.6       43175.4       51709.4       60371         80790         107121        140399        179415        221571       
4800          16413.9       25348.4       34423.4       43156.4       51726.3       60442.8       81005.4       107441        140714        179616        221594       
4850          16408         25322.9       34392.2       43139.8       51745.6       60516.2       81219.6       107756        141023        179813        221617       
4900          16402.4       25298.6       34362.9       43125.5       51767         60591.3       81432.5       108067        141327        180006        221640       
4950          16397         25275.4       34335.4       43113.5       51790.7       60667.9       81644.2       108374        141626        180195        221662       
5000          16391.8       25253.4       34309.8       43103.6       51816.4       60746         81854.6       108676        141919        180381        221683       
5050          16386.9       25232.5       34286         43095.9       51844.2       60825.5       82063.7       108975        142207        180563        221704       
5100          16382.2       25212.7       34264         43090.2       51873.9       60906.4       82271.5       109269        142491        180742        221725       
5150          16377.7       25193.9       34243.7       43086.6       51905.6       60988.6       82478.1       109559        142769        180917        221745       
5200          16373.5       25176.3       34225.1       43085.1       51939.2       61072         82683.3       109845        143043        181089        221765       
5250          16369.4       25159.6       34208.2       43085.4       51974.5       61156.6       82887.1       110127        143312        181259        221785       
5300          16365.6       25144         34192.9       43087.7       52011.6       61242.3       83089.7       110405        143577        181425        221804       
5350          16362         25129.3       34179.2       43091.8       52050.4       61329.1       83290.9       110680        143837        181588        221823       
5400          16358.6       25115.7       34167.1       43097.8       52090.9       61417         83490.7       110951        144093        181748        221841       
5450          16355.4       25103         34156.5       43105.5       52133         61505.8       83689.2       111218        144345        181905        221859       
5500          16352.4       25091.2       34147.4       43115         52176.6       61595.6       83886.4       111482        144593        182060        221877       
5550          16349.6       25080.4       34139.8       43126.1       52221.7       61686.2       84082.1       111742        144837        182212        221895       
5600          16347         25070.5       34133.7       43138.9       52268.2       61777.7       84276.6       111999        145076        182361        221912       
5650          16344.6       25061.4       34128.9       43153.3       52316.1       61870         84469.6       112252        145312        182508        221929       
5700          16342.4       25053.3       34125.5       43169.2       52365.4       61963.1       84661.3       112502        145544        182652        221945       
5750          16340.3       25046         34123.5       43186.7       52416.1       62056.8       84851.7       112749        145773        182793        221962       
5800          16338.5       25039.5       34122.8       43205.7       52467.9       62151.3       85040.7       112993        145998        182933        221978       
5850          16336.8       25033.8       34123.3       43226.1       52521.1       62246.3       85228.3       113233        146219        183070        221993       
5900          16335.2       25029         34125.2       43247.9       52575.3       62342         85414.6       113470        146437        183204        222009       
5950          16333.9       25024.9       34128.2       43271         52630.8       62438.3       85599.5       113705        146651        183337        222024       
6000          16332.7       25021.6       34132.5       43295.5       52687.3       62535.1       85783.1       113936        146863        183467        222039       
6050          16331.6       25019.1       34138         43321.3       52744.9       62632.3       85965.4       114164        147071        183595        222054       
6100          16330.7       25017.3       34144.6       43348.4       52803.5       62730.1       86146.3       114390        147276        183721        222068       
6150          16330         25016.3       34152.3       43376.7       52863.2       62828.3       86325.9       114613        147477        183845        222083       
6200          16329.4       25015.9       34161.1       43406.1       52923.7       62926.9       86504.2       114833        147676        183967        222096       
6250          16329         25016.2       34171         43436.8       52985.2       63025.8       86681         115050        147872        184087        222110       
6300          16328.7       25017.2       34181.9       43468.5       53047.5       63125         86856.5       115264        148065        184205        222124       
6350          16328.6       25018.9       34193.9       43501.4       53110.8       63224.7       87030.8       115476        148254        184321        222137       
6400          16328.6       25021.3       34206.8       43535.3       53174.8       63324.6       87203.7       115685        148442        184435        222150       
6450          16328.7       25024.2       34220.7       43570.2       53239.6       63424.7       87375.4       115891        148626        184548        222163       
6500          16329         25027.8       34235.7       43606.3       53305.5       63525.4       87545.8       116095        148808        184659        222176       
6550          16329.4       25032         34251.5       43643.2       53371.8       63626.1       87715         116297        148987        184768        222188       
6600          16329.9       25036.8       34268.2       43681.1       53438.9       63727         87882.9       116496        149164        184875        222201       
6650          16330.6       25042.2       34285.7       43719.9       53506.6       63828         88049.5       116693        149338        184981        222213       
6700          16331.4       25048.1       34304.2       43759.6       53575.1       63929.3       88215         116888        149510        185086        222225       
6750          16332.3       25054.6       34323.5       43800.2       53644         64030.7       88379         117080        149679        185188        222236       
6800          16333.3       25061.7       34343.6       43841.6       53713.6       64132.1       88542         117270        149847        185289        222248       
6850          16334.4       25069.2       34364.5       43883.7       53783.7       64233.7       88703.8       117458        150011        185389        222259       
6900          16335.6       25077.3       34386.1       43926.7       53854.3       64335.3       88864.3       117644        150174        185487        222271       
6950          16337         25085.9       34408.5       43970.4       53925.6       64437         89023.4       117827        150334        185584        222282       
7000          16338.4       25095         34431.6       44015         53997.4       64538.9       89181.6       118008        150492        185679        222293       
7050          16340         25104.5       34455.4       44060         54069.4       64640.5       89338.6       118188        150648        185774        222303       
7100          16341.6       25114.5       34479.9       44105.8       54141.9       64742.2       89494.2       118365        150802        185866        222314       
7150          16343.4       25125         34505.1       44152.3       54214.8       64843.9       89648.7       118540        150953        185957        222324       
7200          16345.2       25135.9       34530.9       44199.3       54288         64945.5       89802.1       118713        151103        186047        222335       
7250          16347.2       25147.2       34557.2       44246.9       54361.6       65047.1       89954.5       118885        151251        186136        222345       
7300          16349.2       25158.9       34584.3       44295.2       54435.8       65148.6       90105.4       119054        151397        186224        222355       
7350          16351.3       25171         34611.8       44343.8       54509.8       65249.9       90255.3       119221        151541        186310        222364       
7400          16353.6       25183.6       34640.1       44393.4       54584.8       65351.7       90404         119387        151683        186395        222374       
7450          16355.8       25196.5       34668.7       44443         54659.4       65452.6       90551.8       119550        151823        186479        222384       
7500          16358.2       25209.8       34697.9       44493.3       54734.5       65553.7       90698.6       119713        151962        186562        222393       
7550          16360.7       25223.4       34727.7       44544.1       54809.8       65654.6       90844.1       119873        152098        186644        222403       
7600          16363.2       25237.4       34757.8       44595.3       54885.3       65755.4       90988.5       120031        152233        186724        222412       
7650          16365.8       25251.7       34788.6       44646.9       54961.1       65856.1       91131.7       120188        152367        186803        222421       
7700          16368.5       25266.3       34819.7       44699         55037.1       65956.5       91274.2       120343        152498        186882        222430       
7750          16371.2       25281.3       34851.4       44751.5       55113.3       66056.9       91415.2       120497        152628        186959        222438       
7800          16374         25296.6       34883.4       44804.3       55189.6       66156.9       91555.5       120649        152757        187036        222447       
7850          16376.9       25312.2       34915.9       44857.6       55266.1       66256.9       91694.4       120799        152883        187111        222456       
7900          16379.9       25328         34948.7       44911.1       55342.7       66356.6       91832.7       120947        153009        187185        222464       
7950          16382.9       25344.3       34982.1       44965.2       55419.8       66456.3       91969.4       121094        153132        187259        222472       
8000          16385.9       25360.6       35015.6       45019.3       55496.3       66555.4       92105.4       121240        153254        187331        222481       
8050          16389.1       25377.4       35049.7       45073.9       55573.4       66654.4       92240.3       121384        153375        187403        222489       
8100          16392.2       25394.3       35084         45128.6       55650.3       66753.3       92374.6       121526        153495        187473        222497       
8150          16395.5       25411.5       35118.7       45183.8       55727.4       66851.9       92507.4       121667        153612        187543        222505       
8200          16398.8       25428.9       35153.6       45238.9       55804.3       66950         92639.2       121807        153729        187612        222512       
8250          16402.1       25446.5       35188.9       45294.5       55881.5       67048         92770.4       121945        153844        187680        222520       
8300          16405.5       25464.5       35224.6       45350.5       55959         67146.1       92900.1       122082        153958        187747        222528       
8350          16409         25482.5       35260.3       45406.2       56035.7       67243.2       93029.5       122217        154070        187813        222535       
8400          16412.4       25500.7       35296.3       45462.2       56112.7       67340.2       93157.5       122351        154181        187879        222543       
8450          16416         25519.2       35332.7       45518.5       56189.7       67437         93284.7       122484        154291        187943        222550       
8500          16419.5       25537.9       35369.3       45575.1       56266.9       67533.5       93410.8       122615        154400        188007        222557       
8550          16423.1       25556.6       35406         45631.4       56343.6       67629.6       93536.3       122745        154508        188070        222564       
8600          16426.8       25575.6       35442.9       45688.1       56420.4       67725.3       93660.4       122874        154614        188133        222572       
8650          16430.5       25594.9       35480.3       45745.2       56497.7       67821.2       93783.8       123001        154719        188194        222578       
8700          16434.2       25614         35517.5       45801.7       56573.9       67915.9       93906.5       123128        154822        188255        222585       
8750          16438         25633.5       35555         45858.7       56650.4       68010.7       94028.5       123253        154925        188316        222592       