# Probe 0 (0.0015 0.0015 0)
# Probe 1 (0.0015 0.0015 0.01)
# Probe 2 (0.0015 0.0015 0.02)
# Probe 3 (0.0015 0.0015 0.03)
# Probe 4 (0.0015 0.0015 0.04)
# Probe 5 (0.0015 0.0015 0.05)
# Probe 6 (0.0015 0.0015 0.06)
# Probe 7 (0.0015 0.0015 0.07)
# Probe 8 (0.0015 0.0015 0.08)
# Probe 9 (0.0015 0.0015 0.09)
# Probe 10 (0.0015 0.0015 0.1)
# Time        0             1             2             3             4             5             6             7             8             9             10           
50            (-3.15009 -3.15009 7.08331e+06) (0.191093 0.191093 1.10635e+06) (-0.2261 -0.2261 95022) (-0.0605817 -0.0605817 6490.2) (-0.00421611 -0.00421613 4733.54) (-0.0988884 -0.0988884 32385.7) (0.000793712 0.000793712 600.165) (-0.00258052 -0.00258052 1.95299) (-0.0020495 -0.00204951 637.614) (4.69065 4.69065 342565) (-66.1869 -66.1869 3.84877e+07)
100           (-0.2847 -0.2847 5.58326e+06) (0.515919 0.515919 1.59963e+06) (-0.0102983 -0.0102984 250392) (-0.0589564 -0.0589564 28381.4) (-0.0184954 -0.0184954 8576.1) (-0.0130868 -0.0130867 21665) (-0.000604461 -0.000604475 1638.66) (-0.000896658 -0.000896658 23.6433) (-0.12779 -0.12779 5506.72) (-1.46522 -1.46522 1.14244e+06) (-46.4206 -46.4206 2.83189e+07)
150           (21.5459 21.5459 4.73301e+06) (-2.20459 -2.20459 1.84225e+06) (-2.2209 -2.2209 416611) (-0.64847 -0.64847 67007.8) (-0.127544 -0.127544 14774.1) (0.0775584 0.0775584 18016.6) (-0.0435012 -0.0435012 2808.56) (-0.00799139 -0.00799139 132.592) (-1.06316 -1.06316 21757.7) (-50.3713 -50.3713 2.24946e+06) (145.596 145.596 2.33131e+07)
200           (-0.694838 -0.694838 4.17395e+06) (-0.364189 -0.364189 1.95323e+06) (-0.936904 -0.936904 565891) (0.196554 0.196555 117961) (0.626893 0.626893 25113.1) (1.07454 1.07454 17504.1) (-0.0204068 -0.0204068 3912.44) (-0.0208447 -0.0208447 502.037) (-1.61835 -1.61835 57971.8) (-21.6789 -21.6789 3.42185e+06) (-11.7516 -11.7516 2.0261e+07)
250           (-9.66765 -9.66765 3.77261e+06) (-0.100826 -0.100826 1.99572e+06) (2.29855 2.29855 689991) (1.14592 1.14592 175426) (0.295969 0.295969 40135.9) (0.209022 0.209022 19592.4) (0.0755428 0.0755428 4900.67) (0.0860731 0.0860731 1464.86) (5.35757 5.35757 121387) (79.7479 79.7479 4.47741e+06) (-44.3396 -44.3396 1.81574e+07)
300           (-6.69027 -6.69027 3.46727e+06) (-0.00296568 -0.00296568 2.00184e+06) (0.38153 0.38153 789522) (0.144712 0.144712 234523) (0.0124578 0.0124578 59416.3) (-0.598915 -0.598915 24265.3) (0.0476432 0.0476432 5825.23) (0.156202 0.156202 3545.46) (6.03137 6.03137 216056) (49.8917 49.8917 5.33314e+06) (-86.1093 -86.1093 1.65962e+07)
350           (-5.03521 -5.03521 3.22531e+06) (-0.189407 -0.189407 1.98808e+06) (0.344232 0.344232 868022) (0.219644 0.219644 292078) (0.0642185 0.0642185 82109.7) (-0.817008 -0.817008 31610.9) (0.0469109 0.0469109 6803.18) (0.251585 0.251585 7424.54) (6.86981 6.86981 342054) (33.8498 33.8498 5.98102e+06) (-58.0749 -58.0749 1.53785e+07)
400           (3.31227 3.31227 3.02757e+06) (-1.5688 -1.5688 1.96353e+06) (-0.864983 -0.864983 929376) (0.76509 0.76509 346170) (1.43528 1.43528 107182) (2.34031 2.34031 41517.9) (0.0446163 0.0446163 7990.96) (0.325416 0.325416 13888.6) (5.60035 5.60035 496375) (14.7354 14.7354 6.44894e+06) (41.4446 41.4446 1.43944e+07)
450           (1.2003 1.2003 2.86215e+06) (-1.13453 -1.13453 1.93326e+06) (-0.674647 -0.674647 977061) (0.0828592 0.0828592 395864) (1.13659 1.13659 133653) (3.16769 3.16769 53770.6) (0.0806944 0.0806944 9569.91) (0.595816 0.595816 23738.1) (8.48509 8.48509 673749) (15.431 15.431 6.77467e+06) (26.2693 26.2693 1.35778e+07)
500           (0.614284 0.614284 2.72113e+06) (-1.12675 -1.12675 1.90021e+06) (-0.638256 -0.638256 1.01394e+06) (-0.0299509 -0.0299509 440850) (0.999094 0.999094 160696) (2.98297 2.98297 68036.8) (0.123111 0.123111 11736.5) (0.896212 0.896212 37720.8) (10.3148 10.3148 867902) (12.7533 12.7533 6.99296e+06) (18.5819 18.5819 1.28861e+07)
550           (0.40423 0.40423 2.59907e+06) (-1.13442 -1.13442 1.86607e+06) (-0.677555 -0.677555 1.0423e+06) (-0.0782807 -0.0782807 481186) (0.923967 0.923967 187663) (2.66233 2.66233 83946.6) (0.177552 0.177552 14692.9) (1.24035 1.24035 56460) (11.6198 11.6198 1.07239e+06) (9.82557 9.82557 7.13174e+06) (13.639 13.639 1.22903e+07)
600           (0.326789 0.326789 2.49209e+06) (-1.11656 -1.11656 1.83187e+06) (-0.72165 -0.72165 1.06391e+06) (-0.124333 -0.124333 517132) (0.857665 0.857665 214081) (2.35501 2.35501 101126) (0.243515 0.243515 18638.8) (1.60792 1.60792 80411.6) (12.3718 12.3718 1.28128e+06) (7.17435 7.17435 7.2122e+06) (10.3528 10.3528 1.17702e+07)
650           (0.309561 0.309561 2.39731e+06) (-1.0753 -1.0753 1.7982e+06) (-0.754839 -0.754839 1.08016e+06) (-0.171548 -0.171548 549042) (0.790544 0.790544 239621) (2.08458 2.08458 119224) (0.31891 0.31891 23765.3) (1.97427 1.97427 109843) (12.5901 12.5901 1.48948e+06) (4.95737 4.95737 7.24998e+06) (8.11725 8.11725 1.13109e+07)
700           (4.88242 4.88242 2.31259e+06) (0.859934 0.859934 1.76541e+06) (-0.113821 -0.113821 1.09213e+06) (-0.538455 -0.538455 577298) (-0.580768 -0.580768 264061) (-1.16867 -1.16867 137911) (-0.327315 -0.327315 30266.7) (-2.4993 -2.4993 144892) (-16.0343 -16.0343 1.69296e+06) (-3.14033 -3.14033 7.25646e+06) (41.7203 41.7203 1.09016e+07)
750           (0.692098 0.692098 2.23627e+06) (-0.833879 -0.833879 1.73369e+06) (0.0225184 0.0225184 1.10068e+06) (0.920242 0.920242 602283) (1.48402 1.48402 287290) (8.05404 8.05404 157182) (-1.2864 -1.2864 38283.5) (-7.02926 -7.02926 185442) (-37.2262 -37.2262 1.88864e+06) (-3.30447 -3.30447 7.24015e+06) (112.286 112.286 1.05338e+07)
800           (3.09261 3.09261 2.16706e+06) (3.55386 3.55386 1.70312e+06) (0.147188 0.147188 1.10645e+06) (-0.994654 -0.994654 624352) (-2.02259 -2.02259 309253) (2.85454 2.85454 176614) (1.7739 1.7739 47944.1) (-2.09817 -2.09817 231209) (-10.514 -10.514 2.07443e+06) (-17.3419 -17.3419 7.20725e+06) (32.6835 32.6835 1.02009e+07)
850           (3.95418 3.95418 2.10391e+06) (3.99605 3.99605 1.67374e+06) (0.825877 0.825876 1.10999e+06) (-0.706924 -0.706924 643836) (-1.55037 -1.55037 329926) (4.82393 4.82393 195775) (1.70584 1.70584 59364.3) (-2.63126 -2.63126 281811) (-4.60281 -4.60281 2.24905e+06) (-34.2195 -34.2195 7.16228e+06) (31.2138 31.2138 9.89761e+06)
900           (4.12826 4.12826 2.046e+06) (3.60532 3.60532 1.64555e+06) (1.06167 1.06167 1.11172e+06) (-0.454923 -0.454923 661030) (-1.26462 -1.26462 349328) (5.9875 5.9875 214733) (1.14545 1.14545 72627.6) (-2.63876 -2.63876 336808) (-0.499902 -0.499902 2.41181e+06) (-39.0844 -39.0844 7.10862e+06) (29.2409 29.2409 9.61983e+06)
950           (4.12993 4.12993 1.99263e+06) (3.18925 3.18925 1.61852e+06) (1.10099 1.10099 1.11197e+06) (-0.340777 -0.340777 676200) (-1.1308 -1.1308 367500) (6.80738 6.80738 233396) (0.358689 0.358689 87792.4) (-2.02368 -2.02368 395688) (1.78767 1.78767 2.5625e+06) (-40.7017 -40.7017 7.04876e+06) (27.5257 27.5257 9.36418e+06)
1000          (4.06898 4.06898 1.94324e+06) (2.83158 2.83158 1.59261e+06) (1.06561 1.06561 1.11101e+06) (-0.297557 -0.297557 689578) (-1.0637 -1.0637 384496) (7.44712 7.44712 251695) (-0.632772 -0.632772 104892) (-1.10494 -1.10494 457911) (3.22055 3.22055 2.70123e+06) (-41.2898 -41.2898 6.98462e+06) (26.0592 26.0592 9.12788e+06)
1050          (3.98265 3.98265 1.89736e+06) (2.5312 2.5312 1.56778e+06) (1.00113 1.00113 1.10907e+06) (-0.285009 -0.285009 701371) (-1.02351 -1.02351 400379) (7.97871 7.97871 269588) (-1.73064 -1.73064 123934) (-0.13682 -0.13682 522925) (4.27555 4.27555 2.82838e+06) (-41.4816 -41.4816 6.91761e+06) (24.7849 24.7849 8.90859e+06)
1100          (3.8858 3.8858 1.8546e+06) (2.27833 2.27833 1.54396e+06) (0.926245 0.926245 1.10632e+06) (-0.287745 -0.287745 711760) (-0.995912 -0.995912 415219) (8.43032 8.43032 287048) (-2.83533 -2.83533 144905) (0.75179 0.75179 590187) (5.15043 5.15043 2.94446e+06) (-41.483 -41.483 6.84881e+06) (23.6575 23.6575 8.70438e+06)
1150          (8.46899 8.46899 1.81462e+06) (4.20584 4.20584 1.52113e+06) (1.79325 1.79325 1.10292e+06) (-0.422042 -0.422042 720906) (-1.78252 -1.78252 429085) (18.0773 18.0773 304144) (-7.81565 -7.81565 167763) (-9.41353 -9.41353 659174) (-7.48572 -7.48572 3.05012e+06) (-43.1012 -43.1012 6.77905e+06) (43.3848 43.3848 8.5136e+06)
1200          (4.52763 4.52763 1.77713e+06) (2.19236 2.19236 1.4992e+06) (1.14515 1.14515 1.09899e+06) (-0.22142 -0.22142 728952) (-0.625292 -0.625292 442049) (13.4101 13.4101 320710) (-5.55161 -5.55161 192469) (-5.02454 -5.02454 729398) (13.8119 13.8119 3.146e+06) (-42.4367 -42.4367 6.70893e+06) (21.446 21.446 8.33483e+06)
1250          (-1.54146 -1.54146 1.74189e+06) (-0.101052 -0.101052 1.47816e+06) (-0.157346 -0.157346 1.09463e+06) (0.223591 0.223591 736022) (-0.213541 -0.213541 454182) (17.5134 17.5134 336929) (-0.505425 -0.505425 218935) (-7.79919 -7.79919 800392) (-53.9401 -53.9401 3.23287e+06) (62.7215 62.7215 6.63889e+06) (17.9631 17.9631 8.16689e+06)
1300          (-2.74136 -2.74136 1.70866e+06) (-0.968581 -0.968581 1.45794e+06) (-0.729473 -0.729473 1.08992e+06) (-0.413952 -0.413952 742229) (-0.798603 -0.798603 465552) (9.5245 9.5245 352671) (2.73916 2.73916 247097) (10.9966 10.9966 871749) (-31.9974 -31.9974 3.31132e+06) (43.0377 43.0377 6.56937e+06) (-6.32705 -6.32705 8.00868e+06)
1350          (1.55155 1.55155 1.67729e+06) (0.596948 0.596948 1.43849e+06) (0.810241 0.810241 1.08494e+06) (1.01631 1.01631 747666) (2.12984 2.12984 476215) (16.6625 16.6625 368354) (1.73959 1.73959 276850) (-11.9274 -11.9274 943118) (47.649 47.649 3.38204e+06) (-55.3056 -55.3056 6.50065e+06) (-5.77962 -5.77962 7.85936e+06)
1400          (1.75482 1.75482 1.64759e+06) (0.341003 0.341003 1.41978e+06) (0.687137 0.687137 1.07973e+06) (1.09742 1.09742 752426) (1.77192 1.77192 486239) (9.64468 9.64468 383050) (2.8672 2.8672 308089) (-17.0159 -17.0159 1.01412e+06) (39.2677 39.2677 3.44575e+06) (-45.1879 -45.1879 6.43281e+06) (10.0962 10.0962 7.71802e+06)
1450          (0.82027 0.82027 1.61943e+06) (0.46284 0.46284 1.40177e+06) (0.0511804 0.0511804 1.07437e+06) (-0.301055 -0.301055 756587) (0.570649 0.570649 495683) (29.1173 29.1173 397757) (-11.8243 -11.8243 340713) (3.30849 3.30849 1.08449e+06) (-46.9079 -46.9079 3.50303e+06) (44.2662 44.2662 6.36603e+06) (11.8189 11.8189 7.58411e+06)
1500          (1.00207 1.00207 1.59267e+06) (1.19369 1.19369 1.38441e+06) (1.07463 1.07463 1.06887e+06) (0.417955 0.417955 760213) (-1.32805 -1.32805 504604) (10.4249 10.4249 412454) (11.2906 11.2906 374597) (-19.4884 -19.4884 1.15403e+06) (38.3157 38.3157 3.55433e+06) (-39.6933 -39.6933 6.30052e+06) (-2.15319 -2.15319 7.45694e+06)
1550          (-2.94415 -2.94415 1.56721e+06) (-0.82757 -0.82757 1.36769e+06) (0.132426 0.132426 1.06329e+06) (1.53585 1.53585 763373) (3.36961 3.36961 513040) (22.8926 22.8926 426286) (-16.9705 -16.9705 409646) (9.92891 9.92891 1.22244e+06) (-37.921 -37.921 3.60033e+06) (35.8094 35.8094 6.23621e+06) (8.62793 8.62793 7.33594e+06)
1600          (7.05908 7.05908 1.54295e+06) (2.17481 2.17481 1.35155e+06) (0.379276 0.379276 1.05764e+06) (-1.46494 -1.46494 766117) (-2.99214 -2.99214 521053) (11.3682 11.3682 440182) (8.6254 8.6254 445711) (-30.3472 -30.3472 1.28964e+06) (17.3115 17.3115 3.64136e+06) (-19.8734 -19.8734 6.17327e+06) (19.6634 19.6634 7.22064e+06)
1650          (-4.13215 -4.13215 1.51979e+06) (-0.241026 -0.241026 1.33597e+06) (1.09253 1.09253 1.05197e+06) (2.2864 2.2864 768501) (3.5828 3.5828 528677) (22.3707 22.3707 453820) (-17.937 -17.937 482723) (4.78461 4.78461 1.3554e+06) (-25.0135 -25.0135 3.67798e+06) (25.2897 25.2897 6.11164e+06) (9.01271 9.01271 7.11067e+06)
1700          (7.53553 7.53553 1.49765e+06) (1.74409 1.74409 1.32092e+06) (-0.101944 -0.101944 1.04628e+06) (-1.77653 -1.77653 770565) (-2.44198 -2.44198 535961) (13.1012 13.1012 467291) (5.7346 5.7346 520515) (-22.1387 -22.1387 1.41968e+06) (5.76684 5.76684 3.71052e+06) (-10.3467 -10.3467 6.05141e+06) (17.4792 17.4792 7.00555e+06)
1750          (-4.6121 -4.6121 1.47647e+06) (-0.134067 -0.134067 1.30637e+06) (1.14418 1.14418 1.04061e+06) (2.01687 2.01687 772353) (2.26007 2.26007 542937) (17.912 17.912 480573) (-13.8271 -13.8271 559019) (-3.08736 -3.08736 1.48233e+06) (-12.7667 -12.7667 3.73939e+06) (17.4336 17.4336 5.99252e+06) (8.4771 8.4771 6.90501e+06)
1800          (7.58969 7.58969 1.45617e+06) (1.69525 1.69525 1.29231e+06) (0.1215 0.1215 1.03495e+06) (-1.01638 -1.01638 773898) (-0.611721 -0.611721 549640) (16.4658 16.4658 493723) (-0.165946 -0.165946 598091) (-12.7152 -12.7152 1.54332e+06) (-3.76487 -3.76487 3.7649e+06) (-3.41227 -3.41227 5.93501e+06) (15.6804 15.6804 6.80867e+06)
1850          (7.38763 7.38763 1.4367e+06) (1.92548 1.92548 1.27871e+06) (0.664144 0.664144 1.02935e+06) (-0.204843 -0.204843 775237) (0.331146 0.331146 556104) (16.939 16.939 506747) (-3.57521 -3.57521 637647) (-9.43434 -9.43434 1.60258e+06) (-7.55799 -7.55799 3.78736e+06) (-0.398073 -0.398073 5.87884e+06) (15.6326 15.6326 6.7163e+06)
1900          (-2.57323 -2.57323 1.41801e+06) (0.0844228 0.0844228 1.26555e+06) (-0.589835 -0.589835 1.02379e+06) (-1.08199 -1.08199 776404) (-1.06191 -1.06191 562372) (21.8523 21.8523 519963) (-6.79943 -6.79943 677581) (-14.9468 -14.9468 1.66011e+06) (0.349927 0.349927 3.80706e+06) (11.6992 11.6992 5.82399e+06) (-0.172858 -0.172858 6.62765e+06)
1950          (-2.21801 -2.21801 1.40005e+06) (0.0610195 0.0610195 1.2528e+06) (-0.996716 -0.996716 1.0183e+06) (-1.81529 -1.81529 777416) (-2.18165 -2.18165 568440) (19.1879 19.1879 532776) (-3.76333 -3.76333 717795) (-18.4344 -18.4344 1.71585e+06) (3.37761 3.37761 3.82424e+06) (10.5185 10.5185 5.77046e+06) (0.251099 0.251099 6.54241e+06)
2000          (5.41847 5.41847 1.38277e+06) (2.30536 2.30536 1.24047e+06) (2.97034 2.97034 1.01289e+06) (3.24185 3.24185 778298) (3.8211 3.8211 574331) (21.3764 21.3764 545234) (-13.7827 -13.7827 758204) (-0.731267 -0.731267 1.76981e+06) (-16.3253 -16.3253 3.83916e+06) (3.45142 3.45142 5.71822e+06) (17.1932 17.1932 6.46037e+06)
2050          (3.38887 3.38887 1.36614e+06) (1.37936 1.37936 1.22851e+06) (2.69588 2.69588 1.00755e+06) (3.59497 3.59497 779081) (4.73737 4.73737 580104) (24.9196 24.9196 558285) (-4.18194 -4.18194 798723) (20.4395 20.4395 1.82201e+06) (-9.75402 -9.75402 3.85198e+06) (-6.59284 -6.59284 5.66722e+06) (-3.65612 -3.65612 6.38144e+06)
2100          (0.771659 0.771659 1.3501e+06) (0.797512 0.797512 1.21692e+06) (2.03051 2.03051 1.00231e+06) (2.96965 2.96965 779782) (4.1307 4.1307 585754) (11.5231 11.5231 570633) (-0.508925 -0.508925 839257) (21.4926 21.4926 1.87245e+06) (-4.03935 -4.03935 3.86292e+06) (-8.70231 -8.70231 5.61747e+06) (-16.2739 -16.2739 6.30536e+06)
2150          (0.5257 0.5257 1.33464e+06) (0.829073 0.829073 1.20568e+06) (1.77154 1.77154 997162) (2.56741 2.56741 780415) (3.76268 3.76268 591301) (10.9132 10.9132 583170) (3.44178 3.44178 879748) (24.2517 24.2517 1.92117e+06) (0.404453 0.404453 3.87214e+06) (-13.1456 -13.1456 5.56891e+06) (-18.4816 -18.4816 6.23198e+06)
2200          (0.858561 0.858561 1.31972e+06) (1.04708 1.04708 1.19478e+06) (1.28433 1.28433 992115) (1.74083 1.74083 780999) (3.36662 3.36662 596762) (12.148 12.148 595663) (5.98058 5.98058 920128) (20.9739 20.9739 1.96817e+06) (3.77835 3.77835 3.87981e+06) (-15.5204 -15.5204 5.52152e+06) (-18.1103 -18.1103 6.16115e+06)
2250          (-8.3727 -8.3727 1.30532e+06) (-5.33593 -5.33593 1.18422e+06) (-3.79745 -3.79745 987183) (-2.92896 -2.92896 781554) (-2.42306 -2.42306 602168) (0.679808 0.679808 608410) (29.8116 29.8116 960321) (28.6587 28.6587 2.01352e+06) (11.8815 11.8815 3.88606e+06) (-11.204 -11.204 5.47526e+06) (-34.3368 -34.3368 6.09275e+06)
2300          (-7.63304 -7.63304 1.29141e+06) (-5.46599 -5.46599 1.17396e+06) (-3.83076 -3.83076 982356) (-2.71788 -2.71788 782081) (-1.56004 -1.56004 607493) (2.32789 2.32789 620804) (27.7738 27.7738 1.00029e+06) (32.5317 32.5317 2.05721e+06) (8.82053 8.82053 3.89103e+06) (-11.3276 -11.3276 5.43012e+06) (-34.1538 -34.1538 6.02662e+06)
2350          (-0.252976 -0.252976 1.27795e+06) (-0.409157 -0.409157 1.16401e+06) (-0.909156 -0.909156 977640) (-0.140034 -0.140034 782594) (3.21911 3.21911 612763) (16.1971 16.1971 633143) (25.7828 25.7828 1.03998e+06) (29.0603 29.0603 2.09931e+06) (14.9307 14.9307 3.89482e+06) (-29.3427 -29.3427 5.38608e+06) (-23.5432 -23.5432 5.96265e+06)
2400          (-7.33533 -7.33533 1.26495e+06) (-5.82517 -5.82517 1.15437e+06) (-3.35169 -3.35169 973054) (-1.93031 -1.93031 783117) (-1.31889 -1.31889 617998) (5.93388 5.93388 645522) (15.6223 15.6223 1.07935e+06) (26.0595 26.0595 2.13986e+06) (-0.00583011 -0.00583009 3.89756e+06) (-2.41161 -2.41161 5.34306e+06) (-24.2474 -24.2474 5.90076e+06)
2450          (-6.70376 -6.70376 1.25237e+06) (-5.88969 -5.88969 1.14501e+06) (-3.95259 -3.95259 968588) (-3.5896 -3.5896 783643) (-4.24839 -4.24839 623184) (-0.729163 -0.729163 657805) (12.7125 12.7125 1.11838e+06) (17.6368 17.6368 2.1789e+06) (-3.70166 -3.70166 3.89933e+06) (5.48681 5.48681 5.30107e+06) (-18.3749 -18.3749 5.84081e+06)
2500          (-8.21067 -8.21067 1.24019e+06) (-7.62927 -7.62927 1.13593e+06) (-5.91469 -5.91469 964247) (-5.99936 -5.99936 784193) (-8.76567 -8.76567 628361) (-13.1151 -13.1151 670039) (18.0496 18.0496 1.15694e+06) (13.4224 13.4224 2.21647e+06) (-3.05517 -3.05517 3.90022e+06) (14.8674 14.8674 5.26008e+06) (-17.8899 -17.8899 5.78272e+06)
2550          (-9.60488 -9.60488 1.2284e+06) (-8.27727 -8.27727 1.12712e+06) (-6.86446 -6.86446 960028) (-6.67902 -6.67902 784767) (-11.9681 -11.9681 633521) (-20.2708 -20.2708 682224) (22.4742 22.4742 1.19504e+06) (10.6926 10.6926 2.25262e+06) (-3.2863 -3.2863 3.90032e+06) (24.1075 24.1075 5.22005e+06) (-16.6317 -16.6317 5.72641e+06)
2600          (-10.6985 -10.6985 1.21697e+06) (-7.83968 -7.83968 1.11856e+06) (-6.58812 -6.58812 955932) (-5.94651 -5.94651 785371) (-13.0471 -13.0471 638666) (-22.3034 -22.3034 694368) (24.9254 24.9254 1.23265e+06) (9.5538 9.5538 2.28738e+06) (-4.9481 -4.9481 3.89969e+06) (29.7974 29.7974 5.18096e+06) (-15.0631 -15.0631 5.67179e+06)
2650          (-11.3019 -11.3019 1.2059e+06) (-6.83992 -6.83992 1.11026e+06) (-5.54344 -5.54344 951961) (-4.56363 -4.56363 786010) (-12.4285 -12.4285 643803) (-20.7898 -20.7898 706469) (25.534 25.534 1.26975e+06) (9.50094 9.50094 2.32082e+06) (-7.18941 -7.18941 3.8984e+06) (31.8115 31.8115 5.14278e+06) (-13.6179 -13.6179 5.61879e+06)
2700          (-11.4399 -11.4399 1.19517e+06) (-5.78126 -5.78126 1.10219e+06) (-4.32255 -4.32255 948117) (-3.14932 -3.14932 786692) (-10.9954 -10.9954 648935) (-17.7073 -17.7073 718527) (25.0591 25.0591 1.30632e+06) (9.93366 9.93366 2.35296e+06) (-9.22859 -9.22859 3.89652e+06) (31.5737 31.5737 5.1055e+06) (-12.4685 -12.4685 5.56734e+06)
2750          (-11.248 -11.248 1.18476e+06) (-4.90257 -4.90257 1.09437e+06) (-3.25979 -3.25979 944398) (-1.97997 -1.97997 787419) (-9.38936 -9.38936 654066) (-14.3214 -14.3214 730540) (24.1627 24.1627 1.34233e+06) (10.4528 10.4528 2.38386e+06) (-10.7579 -10.7579 3.89409e+06) (30.3692 30.3692 5.06908e+06) (-11.597 -11.597 5.51738e+06)
2800          (-1.01995 -1.01995 1.17465e+06) (-0.542278 -0.542278 1.08677e+06) (0.350681 0.350681 940808) (1.27752 1.27752 788205) (4.44041 4.44041 659176) (13.7562 13.7562 742108) (5.99503 5.99503 1.37772e+06) (9.59098 9.59098 2.41356e+06) (6.78987 6.78987 3.89116e+06) (-14.5704 -14.5704 5.03353e+06) (-13.873 -13.873 5.46882e+06)
2850          (-2.77753 -2.77753 1.1649e+06) (-0.263316 -0.263316 1.07944e+06) (-0.498397 -0.498397 937381) (-0.493715 -0.493715 789044) (-4.07941 -4.07941 664284) (-8.46649 -8.46649 753736) (5.83796 5.83796 1.41256e+06) (2.861 2.861 2.4421e+06) (-1.65798 -1.65798 3.8878e+06) (-9.55825 -9.55825 4.99875e+06) (5.61018 5.61018 5.4216e+06)
2900          (-1.69224 -1.69224 1.15544e+06) (1.64834 1.64834 1.07234e+06) (0.131221 0.131221 934083) (-0.967177 -0.967177 789934) (3.82847 3.82847 669371) (1.1945 1.1945 765470) (9.40821 9.40821 1.44681e+06) (-1.70586 -1.70586 2.46954e+06) (8.68468 8.68468 3.88404e+06) (-5.81347 -5.81347 4.96477e+06) (-25.9235 -25.9235 5.37572e+06)
2950          (2.26918 2.26918 1.14627e+06) (-0.811727 -0.811727 1.06546e+06) (0.783635 0.783635 930906) (2.25869 2.25869 790874) (-3.91815 -3.91815 674474) (0.262507 0.262507 777205) (-9.7291 -9.7291 1.48045e+06) (-2.19171 -2.19171 2.49589e+06) (-13.022 -13.022 3.87992e+06) (13.4048 13.4048 4.93156e+06) (16.5092 16.5092 5.33108e+06)
3000          (-0.491363 -0.491363 1.13737e+06) (1.49424 1.49424 1.05877e+06) (-0.187072 -0.187072 927852) (-2.4619 -2.4619 791875) (2.66965 2.66965 679584) (1.24498 1.24498 788892) (7.00506 7.00506 1.51347e+06) (1.17296 1.17296 2.52121e+06) (11.7898 11.7898 3.87546e+06) (-11.1208 -11.1208 4.8991e+06) (-17.8964 -17.8964 5.28765e+06)
3050          (2.01456 2.01456 1.12873e+06) (-0.81126 -0.81126 1.05229e+06) (0.288115 0.288115 924919) (2.63095 2.63095 792929) (-3.56282 -3.56282 684711) (-0.466942 -0.466942 800532) (-5.67509 -5.67509 1.54587e+06) (-1.72735 -1.72735 2.54553e+06) (-14.0597 -14.0597 3.87071e+06) (11.409 11.409 4.86736e+06) (10.6261 10.6261 5.24537e+06)
3100          (-0.370589 -0.370589 1.12034e+06) (1.7836 1.7836 1.046e+06) (0.1718 0.1718 922107) (-3.2523 -3.2523 794047) (2.90977 2.90977 689844) (1.61249 1.61249 812105) (3.88207 3.88207 1.57764e+06) (0.665808 0.665808 2.56889e+06) (14.6254 14.6254 3.86569e+06) (-11.3316 -11.3316 4.83634e+06) (-15.9172 -15.9172 5.20421e+06)
3150          (-4.95073 -4.95073 1.11221e+06) (-3.01218 -3.01218 1.0399e+06) (-1.74804 -1.74804 919416) (-0.24857 -0.24857 795222) (1.09375 1.09375 694992) (2.04884 2.04884 823586) (38.0019 38.0019 1.60878e+06) (34.3442 34.3442 2.59133e+06) (4.24911 4.24911 3.86043e+06) (-25.777 -25.777 4.806e+06) (-33.5217 -33.5217 5.16411e+06)
3200          (-1.48788 -1.48788 1.10431e+06) (-1.64808 -1.64808 1.03399e+06) (-0.210779 -0.210779 916847) (2.69071 2.69071 796458) (-3.5696 -3.5696 700147) (2.78879 2.78879 835037) (1.93532 1.93532 1.63928e+06) (11.8034 11.8034 2.61287e+06) (-10.1296 -10.1296 3.85496e+06) (-13.0326 -13.0326 4.77633e+06) (-12.0427 -12.0427 5.12505e+06)
3250          (-2.65358 -2.65358 1.09664e+06) (-1.37937 -1.37937 1.02827e+06) (-1.78216 -1.78216 914395) (-1.33806 -1.33806 797758) (2.01184 2.01184 705305) (1.87875 1.87875 846371) (32.5251 32.5251 1.66916e+06) (21.4314 21.4314 2.63357e+06) (5.42284 5.42284 3.84929e+06) (-18.2195 -18.2195 4.74731e+06) (-27.5537 -27.5537 5.08698e+06)
3300          (-0.0525592 -0.0525592 1.0893e+06) (0.0366542 0.0366542 1.0228e+06) (-0.0203687 -0.0203687 912097) (-0.157072 -0.157072 799099) (-0.0529514 -0.0529514 710398) (-0.929419 -0.929419 857488) (13.9843 13.9843 1.69841e+06) (10.6062 10.6062 2.65344e+06) (1.92725 1.92725 3.84346e+06) (-8.93904 -8.93904 4.71892e+06) (-12.5651 -12.5651 5.04986e+06)
3350          (-2.587 -2.587 1.08211e+06) (-5.19401 -5.19401 1.01746e+06) (-4.25477 -4.25477 909899) (-3.68717 -3.68717 800516) (1.017 1.017 715538) (13.2259 13.2259 868636) (93.1212 93.1212 1.72705e+06) (77.3457 77.3457 2.67253e+06) (9.44491 9.44491 3.83747e+06) (-61.5055 -61.5055 4.69113e+06) (-72.5043 -72.5043 5.01366e+06)
3400          (-9.93077 -9.93077 1.07504e+06) (-6.92747 -6.92747 1.01223e+06) (-4.55635 -4.55635 907794) (-0.856831 -0.856831 802013) (3.68714 3.68714 720745) (15.6618 15.6618 879855) (51.1581 51.1581 1.75505e+06) (42.0298 42.0298 2.69085e+06) (4.49267 4.49267 3.83134e+06) (-34.1432 -34.1432 4.66395e+06) (-46.9266 -46.9266 4.97838e+06)
3450          (-1.10497 -1.10497 1.06841e+06) (0.0246742 0.0246742 1.00735e+06) (0.531621 0.531621 905871) (0.810471 0.810471 803516) (0.995171 0.995171 725781) (-1.54915 -1.54915 890695) (-14.7977 -14.7977 1.78245e+06) (-12.7005 -12.7005 2.70844e+06) (-2.09382 -2.09382 3.8251e+06) (9.44618 9.44618 4.63735e+06) (18.6028 18.6028 4.94391e+06)
3500          (-1.97534 -1.97534 1.06181e+06) (-0.640082 -0.640082 1.00249e+06) (-0.255291 -0.255291 904008) (0.224697 0.224697 805117) (0.524987 0.524987 730950) (4.37082 4.37082 901617) (15.8402 15.8402 1.80923e+06) (12.6959 12.6959 2.72533e+06) (1.23334 1.23334 3.81875e+06) (-10.2583 -10.2583 4.61131e+06) (-16.1259 -16.1259 4.91031e+06)
3550          (-5.00684 -5.00684 1.05552e+06) (-1.29691 -1.29691 997879) (-0.850037 -0.850037 902285) (-0.238382 -0.238382 806747) (3.91529 3.91529 736033) (10.4296 10.4296 912389) (28.5176 28.5176 1.83541e+06) (22.6307 22.6307 2.74154e+06) (2.03111 2.03111 3.81231e+06) (-18.5625 -18.5625 4.58582e+06) (-33.1553 -33.1553 4.87751e+06)
3600          (-2.73483 -2.73483 1.04941e+06) (0.495327 0.495327 993419) (-0.97647 -0.97647 900666) (-1.77496 -1.77496 808431) (5.37818 5.37818 741117) (8.35671 8.35671 923065) (9.14671 9.14671 1.861e+06) (7.51844 7.51844 2.7571e+06) (1.16505 1.16505 3.80579e+06) (-5.43747 -5.43747 4.56087e+06) (-12.355 -12.355 4.84548e+06)
3650          (-3.82836 -3.82836 1.04349e+06) (-0.836413 -0.836413 989133) (0.154344 0.154344 899169) (1.20018 1.20018 810166) (1.5476 1.5476 746172) (5.70288 5.70288 933627) (9.25161 9.25161 1.886e+06) (7.58258 7.58258 2.77204e+06) (1.29252 1.29252 3.7992e+06) (-5.23367 -5.23367 4.53642e+06) (-11.9209 -11.9209 4.81419e+06)
3700          (-3.44756 -3.44756 1.03781e+06) (-0.69604 -0.69604 985051) (0.171552 0.171552 897811) (0.989483 0.989483 811943) (1.29733 1.29733 751161) (6.3773 6.3773 944047) (9.05907 9.05907 1.91045e+06) (7.3901 7.3901 2.7864e+06) (1.24883 1.24883 3.79255e+06) (-5.10752 -5.10752 4.51247e+06) (-11.4745 -11.4745 4.78359e+06)
3750          (-3.22975 -3.22975 1.0323e+06) (-0.639505 -0.639505 981106) (0.161749 0.161749 896542) (0.885705 0.885705 813765) (1.17289 1.17289 756163) (6.84093 6.84093 954383) (8.60794 8.60794 1.93431e+06) (6.9363 6.9363 2.80018e+06) (1.12332 1.12332 3.78586e+06) (-4.84341 -4.84341 4.48901e+06) (-10.8233 -10.8233 4.75372e+06)
3800          (-3.0157 -3.0157 1.02696e+06) (-0.589 -0.589 977295) (0.143336 0.143336 895363) (0.79067 0.79067 815636) (1.07971 1.07971 761175) (7.18651 7.18651 964630) (8.14982 8.14982 1.95761e+06) (6.49325 6.49324 2.81339e+06) (1.00684 1.00684 3.77912e+06) (-4.58849 -4.58849 4.46603e+06) (-10.2047 -10.2047 4.72453e+06)
3850          (-2.80951 -2.80951 1.02179e+06) (-0.543595 -0.543595 973617) (0.121322 0.121322 894272) (0.706619 0.706619 817554) (0.999705 0.999705 766192) (7.45976 7.45976 974783) (7.7072 7.7072 1.98035e+06) (6.07382 6.07382 2.82606e+06) (0.899946 0.899946 3.77236e+06) (-4.34492 -4.34492 4.44353e+06) (-9.61814 -9.61814 4.69602e+06)
3900          (-2.6139 -2.6139 1.01678e+06) (-0.502775 -0.502775 970068) (0.0988763 0.0988763 893269) (0.632284 0.632284 819518) (0.926586 0.926586 771209) (7.67968 7.67968 984838) (7.28351 7.28351 2.00254e+06) (5.67858 5.67858 2.83822e+06) (0.802057 0.802057 3.76556e+06) (-4.11289 -4.11289 4.42149e+06) (-9.06334 -9.06334 4.66815e+06)
3950          (-2.43092 -2.43092 1.01193e+06) (-0.465958 -0.465958 966647) (0.077628 0.077628 892352) (0.566053 0.566053 821528) (0.857899 0.857899 776223) (7.85714 7.85714 994793) (6.87967 6.87967 2.0242e+06) (5.30717 5.30717 2.84988e+06) (0.712598 0.712598 3.75875e+06) (-3.89251 -3.89251 4.39989e+06) (-8.53992 -8.53992 4.64092e+06)
4000          (-2.26175 -2.26175 1.00723e+06) (-0.432666 -0.432666 963351) (0.058264 0.0582639 891521) (0.506632 0.506632 823583) (0.792608 0.792608 781231) (7.9997 7.9997 1.00464e+06) (6.49622 6.49622 2.04533e+06) (4.95916 4.95916 2.86105e+06) (0.631015 0.631015 3.75192e+06) (-3.6839 -3.6839 4.37873e+06) (-8.04754 -8.04754 4.61429e+06)
4050          (-2.10682 -2.10682 1.00268e+06) (-0.402577 -0.402577 960179) (0.040962 0.040962 890775) (0.453053 0.453053 825682) (0.730293 0.730293 786229) (8.11333 8.11333 1.01439e+06) (6.13355 6.13355 2.06594e+06) (4.63407 4.63407 2.87176e+06) (0.556783 0.556783 3.74509e+06) (-3.48712 -3.48712 4.35799e+06) (-7.58582 -7.58582 4.58826e+06)
4100          (-1.9661 -1.9661 998285) (-0.375489 -0.375489 957129) (0.0256357 0.0256357 890112) (0.404582 0.404582 827821) (0.670823 0.670823 791216) (8.2031 8.2031 1.02402e+06) (5.79196 5.79196 2.08604e+06) (4.33142 4.33142 2.88203e+06) (0.489399 0.489399 3.73826e+06) (-3.30224 -3.30224 4.33767e+06) (-7.15438 -7.15438 4.5628e+06)
4150          (-1.83927 -1.83927 994031) (-0.351289 -0.351289 954197) (0.0120686 0.0120686 889532) (0.360643 0.360643 830001) (0.614215 0.614215 796188) (8.27358 8.27358 1.03355e+06) (5.47168 5.47168 2.10566e+06) (4.05068 4.05068 2.89188e+06) (0.428381 0.428382 3.73143e+06) (-3.12929 -3.12929 4.31775e+06) (-6.75281 -6.75281 4.5379e+06)
4200          (-1.72589 -1.72589 989917) (-0.329914 -0.329914 951383) (-1.08524e-05 -1.08524e-05 889032) (0.320777 0.320777 832219) (0.560567 0.560567 801144) (8.32899 8.32899 1.04296e+06) (5.17286 5.17286 2.12478e+06) (3.79132 3.79132 2.90131e+06) (0.373272 0.373272 3.72461e+06) (-2.96825 -2.96825 4.29822e+06) (-6.38066 -6.38066 4.51354e+06)
4250          (-1.62543 -1.62543 985942) (-0.311335 -0.311335 948684) (-0.0108882 -0.0108882 888612) (0.284607 0.284607 834473) (0.51002 0.51002 806081) (8.37324 8.37324 1.05226e+06) (4.89558 4.89558 2.14344e+06) (3.55277 3.55277 2.91034e+06) (0.323632 0.323632 3.7178e+06) (-2.81912 -2.81912 4.27907e+06) (-6.03746 -6.03746 4.4897e+06)
4300          (-1.53742 -1.53742 982103) (-0.295539 -0.295539 946099) (-0.0208387 -0.0208387 888269) (0.251826 0.251826 836763) (0.462739 0.462739 810998) (8.41003 8.41003 1.06145e+06) (4.63984 4.63984 2.16163e+06) (3.33446 3.33446 2.919e+06) (0.279039 0.279039 3.71101e+06) (-2.68184 -2.68184 4.2603e+06) (-5.7227 -5.7227 4.46637e+06)
4350          (-1.46138 -1.46138 978396) (-0.282525 -0.282525 943624) (-0.0301144 -0.0301144 888003) (0.222181 0.222181 839085) (0.418901 0.418901 815893) (8.44281 8.44281 1.07051e+06) (4.40558 4.40558 2.17936e+06) (3.13576 3.13576 2.92729e+06) (0.239087 0.239087 3.70424e+06) (-2.55633 -2.55633 4.24189e+06) (-5.43582 -5.43582 4.44354e+06)