# Probe 0 (0.0015 0.0015 0)
# Probe 1 (0.0015 0.0015 0.01)
# Probe 2 (0.0015 0.0015 0.02)
# Probe 3 (0.0015 0.0015 0.03)
# Probe 4 (0.0015 0.0015 0.04)
# Probe 5 (0.0015 0.0015 0.05)
# Probe 6 (0.0015 0.0015 0.06)
# Probe 7 (0.0015 0.0015 0.07)
# Probe 8 (0.0015 0.0015 0.08)
# Probe 9 (0.0015 0.0015 0.09)
# Probe 10 (0.0015 0.0015 0.1)
# Time        0             1             2             3             4             5             6             7             8             9             10           
50            (0.00331203 0.00331203 -7447.45) (-0.000200917 -0.000200917 -1163.23) (0.000237724 0.000237724 -99.907) (6.36961e-05 6.36961e-05 -6.82385) (4.43285e-06 4.43285e-06 -4.97689) (0.000103972 0.000103972 -22.7101) (-3.87379e-07 -3.87372e-07 -0.292921) (1.25948e-06 1.25948e-06 -0.000953192) (1.0003e-06 1.0003e-06 -0.311199) (-0.00228935 -0.00228935 -167.195) (0.0323037 0.0323037 -18784.6)
100           (0.000299336 0.000299336 -5870.28) (-0.000542441 -0.000542441 -1681.86) (1.08278e-05 1.08278e-05 -263.265) (6.19873e-05 6.19873e-05 -29.8404) (1.94462e-05 1.94462e-05 -9.01698) (1.37595e-05 1.37595e-05 -15.3) (2.95025e-07 2.95032e-07 -0.799779) (4.37631e-07 4.37631e-07 -0.0115396) (6.23703e-05 6.23703e-05 -2.68765) (0.000715129 0.000715129 -557.588) (0.0226564 0.0226564 -13821.5)
150           (-0.0226536 -0.0226536 -4976.33) (0.00231792 0.00231792 -1936.96) (0.00233507 0.00233507 -438.028) (0.000681807 0.000681807 -70.4525) (0.000134101 0.000134101 -15.5337) (-8.15455e-05 -8.15455e-05 -12.7493) (2.12315e-05 2.12315e-05 -1.37077) (3.90033e-06 3.90034e-06 -0.0647138) (0.000518895 0.000518895 -10.6192) (0.0245846 0.0245846 -1097.89) (-0.0710605 -0.0710605 -11378.4)
200           (0.000730559 0.000730559 -4388.53) (0.000382912 0.000382912 -2053.65) (0.000985069 0.000985069 -594.982) (-0.000206659 -0.000206659 -124.025) (-0.000659121 -0.000659121 -26.4042) (-0.00112978 -0.00112978 -12.4153) (9.9599e-06 9.9599e-06 -1.90954) (1.01736e-05 1.01736e-05 -0.245028) (0.000789863 0.000789863 -28.2942) (0.0105808 0.0105808 -1670.1) (0.00573557 0.00573557 -9888.72)
250           (0.0101647 0.0101647 -3966.55) (0.00010601 0.00010601 -2098.31) (-0.00241671 -0.00241671 -725.463) (-0.00120483 -0.00120483 -184.444) (-0.000311185 -0.000311185 -42.1992) (-0.000219768 -0.000219768 -13.9358) (-3.687e-05 -3.687e-05 -2.39186) (-4.20095e-05 -4.20095e-05 -0.714951) (-0.00261486 -0.00261486 -59.2449) (-0.0389224 -0.0389224 -2185.28) (0.0216407 0.0216407 -8862.06)
300           (0.00703421 0.00703421 -3645.52) (3.11814e-06 3.11814e-06 -2104.75) (-0.000401144 -0.000401144 -830.11) (-0.000152152 -0.000152152 -246.579) (-1.30982e-05 -1.30982e-05 -62.4708) (0.000629704 0.000629704 -17.3007) (-2.32531e-05 -2.32531e-05 -2.84311) (-7.6237e-05 -7.6237e-05 -1.73042) (-0.00294372 -0.00294372 -105.45) (-0.0243505 -0.0243505 -2602.93) (0.0420272 0.0420272 -8100.09)
350           (0.00529406 0.00529406 -3391.12) (0.000199144 0.000199144 -2090.28) (-0.000361928 -0.000361928 -912.646) (-0.000230935 -0.000230935 -307.093) (-6.75199e-05 -6.75199e-05 -86.3308) (0.000859009 0.000859009 -22.5703) (-2.28957e-05 -2.28957e-05 -3.32041) (-0.00012279 -0.00012279 -3.62368) (-0.00335293 -0.00335293 -166.946) (-0.016521 -0.016521 -2919.14) (0.0283445 0.0283445 -7505.75)
400           (-0.00348254 -0.00348254 -3183.21) (0.00164945 0.00164945 -2064.47) (0.00090945 0.00090945 -977.154) (-0.000804422 -0.000804422 -363.966) (-0.00150907 -0.00150907 -112.692) (-0.00246063 -0.00246063 -29.6621) (-2.17758e-05 -2.17758e-05 -3.90013) (-0.000158825 -0.000158825 -6.7786) (-0.00273335 -0.00273335 -242.265) (-0.00719185 -0.00719185 -3147.52) (-0.0202278 -0.0202278 -7025.43)
450           (-0.001262 -0.001262 -3009.29) (0.00119286 0.00119286 -2032.65) (0.00070933 0.00070933 -1027.29) (-8.71188e-05 -8.71188e-05 -416.215) (-0.00119502 -0.00119502 -140.524) (-0.00333054 -0.00333054 -38.4192) (-3.93843e-05 -3.93843e-05 -4.67077) (-0.000290799 -0.000290799 -11.5858) (-0.0041413 -0.0041413 -328.835) (-0.00753137 -0.00753137 -3306.5) (-0.0128212 -0.0128212 -6626.91)
500           (-0.000645864 -0.000645864 -2861.02) (0.00118467 0.00118467 -1997.89) (0.000671068 0.000671068 -1066.07) (3.14906e-05 3.14907e-05 -463.513) (-0.00105046 -0.00105046 -168.957) (-0.00313632 -0.00313632 -48.6026) (-6.00865e-05 -6.00865e-05 -5.72823) (-0.000437412 -0.000437412 -18.4103) (-0.00503431 -0.00503431 -423.595) (-0.00622447 -0.00622447 -3413.04) (-0.00906921 -0.00906921 -6289.29)
550           (-0.000425011 -0.000425011 -2732.69) (0.00119274 0.00119274 -1962) (0.000712387 0.000712387 -1095.88) (8.2305e-05 8.2305e-05 -505.923) (-0.000971467 -0.000971467 -197.31) (-0.00279919 -0.00279919 -59.9472) (-8.66574e-05 -8.66573e-05 -7.17111) (-0.000605374 -0.000605374 -27.5563) (-0.00567126 -0.00567126 -523.401) (-0.00479554 -0.00479554 -3480.77) (-0.00665674 -0.00665674 -5998.51)
600           (-0.000343589 -0.000343589 -2620.2) (0.00117397 0.00117397 -1926.04) (0.000758749 0.000758749 -1118.61) (0.000130725 0.000130725 -543.717) (-0.000901756 -0.000901756 -225.086) (-0.00247608 -0.00247608 -72.186) (-0.000118852 -0.000118852 -9.09699) (-0.000784776 -0.000784776 -39.2463) (-0.00603829 -0.00603829 -625.35) (-0.00350157 -0.00350157 -3520.04) (-0.00505288 -0.00505288 -5744.64)
650           (-0.000325475 -0.000325475 -2520.55) (0.00113058 0.00113058 -1890.64) (0.000793644 0.000793644 -1135.69) (0.000180367 0.000180367 -577.267) (-0.000831185 -0.000831185 -251.94) (-0.00219175 -0.00219175 -85.069) (-0.00015565 -0.00015565 -11.5991) (-0.00096358 -0.00096358 -53.611) (-0.00614485 -0.00614485 -726.969) (-0.00241953 -0.00241953 -3538.48) (-0.00396177 -0.00396177 -5520.49)
700           (-0.00513342 -0.00513342 -2431.48) (-0.000904142 -0.000904142 -1856.17) (0.000119672 0.000119672 -1148.28) (0.000566137 0.000566137 -606.976) (0.000610625 0.000610625 -277.636) (0.00122875 0.00122875 -98.3615) (0.000159752 0.000159752 -14.7722) (0.00121983 0.00121983 -70.7171) (0.00782583 0.00782583 -826.279) (0.00153269 0.00153269 -3541.64) (-0.0203623 -0.0203623 -5320.73)
750           (-0.000727678 -0.000727678 -2351.23) (0.000876748 0.000876748 -1822.81) (-2.36761e-05 -2.36761e-05 -1157.26) (-0.00096755 -0.00096755 -633.245) (-0.00156031 -0.00156031 -302.06) (-0.00846809 -0.00846809 -112.057) (0.000627848 0.000627848 -18.685) (0.00343076 0.00343076 -90.5085) (0.0181689 0.0181689 -921.785) (0.00161281 0.00161281 -3533.68) (-0.0548034 -0.0548034 -5141.21)
800           (-0.00325159 -0.00325159 -2278.47) (-0.00373656 -0.00373656 -1790.68) (-0.000154754 -0.000154754 -1163.34) (0.00104579 0.00104579 -656.449) (0.00212656 0.00212656 -325.151) (-0.00300129 -0.00300129 -125.857) (-0.000865782 -0.000865782 -23.4) (0.00102405 0.00102405 -112.846) (0.00513156 0.00513156 -1012.46) (0.00846405 0.00846405 -3517.63) (-0.0159518 -0.0159518 -4978.74)
850           (-0.00415745 -0.00415745 -2212.07) (-0.00420148 -0.00420148 -1759.79) (-0.000868334 -0.000868334 -1167.06) (0.000743266 0.000743266 -676.934) (0.00163008 0.00163008 -346.887) (-0.00507192 -0.00507192 -139.462) (-0.000832568 -0.000832568 -28.9738) (0.00128424 0.00128424 -137.543) (0.00224648 0.00224648 -1097.69) (0.0167014 0.0167014 -3495.68) (-0.0152344 -0.0152344 -4830.71)
900           (-0.00434049 -0.00434049 -2151.18) (-0.00379066 -0.00379066 -1730.15) (-0.00111625 -0.00111625 -1168.87) (0.00047831 0.00047831 -695.013) (0.00132963 0.00132963 -367.287) (-0.0062953 -0.0062953 -152.915) (-0.000559056 -0.000559056 -35.4472) (0.00128789 0.00128789 -164.385) (0.000243986 0.000243986 -1177.13) (0.0190758 0.0190758 -3469.49) (-0.0142715 -0.0142715 -4695.13)
950           (-0.00434225 -0.00434225 -2095.06) (-0.00335321 -0.00335321 -1701.73) (-0.00115759 -0.00115759 -1169.13) (0.000358296 0.000358296 -710.962) (0.00118893 0.00118893 -386.393) (-0.00715734 -0.00715734 -166.153) (-0.000175065 -0.000175065 -42.8486) (0.000987693 0.000987693 -193.123) (-0.000872503 -0.000872503 -1250.67) (0.0198652 0.0198652 -3440.27) (-0.0134344 -0.0134344 -4570.36)
1000          (-0.00427816 -0.00427816 -2043.14) (-0.00297714 -0.00297714 -1674.49) (-0.00112039 -0.00112039 -1168.12) (0.000312854 0.000312854 -725.028) (0.00111838 0.00111838 -404.263) (-0.00782997 -0.00782997 -179.126) (0.000308836 0.000308836 -51.1943) (0.000539284 0.000539284 -223.492) (-0.00157184 -0.00157184 -1318.38) (0.0201522 0.0201522 -3408.97) (-0.0127187 -0.0127187 -4455.02)
1050          (-0.00418739 -0.00418739 -1994.9) (-0.00266132 -0.00266132 -1648.37) (-0.0010526 -0.0010526 -1166.08) (0.00029966 0.00029966 -737.427) (0.00107613 0.00107613 -420.962) (-0.00838889 -0.00838889 -191.806) (0.000844668 0.000844668 -60.4884) (6.67777e-05 6.67777e-05 -255.223) (-0.00208676 -0.00208676 -1380.44) (0.0202458 0.0202458 -3376.26) (-0.0120967 -0.0120967 -4348)
1100          (-0.00408557 -0.00408557 -1949.94) (-0.00239545 -0.00239545 -1623.34) (-0.000973861 -0.000973861 -1163.2) (0.000302538 0.000302538 -748.351) (0.00104711 0.00104711 -436.564) (-0.00886371 -0.00886371 -204.174) (0.00138383 0.00138383 -70.7236) (-0.000366924 -0.000366924 -288.051) (-0.00251376 -0.00251376 -1437.1) (0.0202465 0.0202465 -3342.68) (-0.0115465 -0.0115465 -4248.33)
1150          (-0.00890436 -0.00890436 -1907.91) (-0.00442205 -0.00442205 -1599.33) (-0.00188544 -0.00188544 -1159.62) (0.000443739 0.000443739 -757.966) (0.00187416 0.00187416 -451.144) (-0.0190067 -0.0190067 -216.279) (0.00381457 0.00381457 -81.8797) (0.00459444 0.00459444 -321.722) (0.00365354 0.00365354 -1488.66) (0.0210363 0.0210363 -3308.63) (-0.0211747 -0.0211747 -4155.21)
1200          (-0.00476039 -0.00476039 -1868.49) (-0.00230507 -0.00230507 -1576.28) (-0.00120402 -0.00120402 -1155.49) (0.000232803 0.000232803 -766.427) (0.000657437 0.000657437 -464.774) (-0.0140995 -0.0140995 -228.003) (0.00270956 0.00270956 -93.9379) (0.00245232 0.00245232 -355.996) (-0.00674115 -0.00674115 -1535.46) (0.020712 0.020712 -3274.41) (-0.0104671 -0.0104671 -4067.96)
1250          (0.00162071 0.00162071 -1831.44) (0.000106247 0.000106247 -1554.15) (0.000165435 0.000165435 -1150.91) (-0.000235085 -0.000235085 -773.86) (0.000224519 0.000224519 -477.531) (-0.0184137 -0.0184137 -239.478) (0.000246682 0.000246682 -106.855) (0.00380653 0.00380653 -390.645) (0.0263264 0.0263264 -1577.86) (-0.0306124 -0.0306124 -3240.23) (-0.00876722 -0.00876722 -3985.99)
1300          (0.00288229 0.00288229 -1796.5) (0.00101837 0.00101837 -1532.89) (0.000766974 0.000766974 -1145.95) (0.000435233 0.000435233 -780.386) (0.000839658 0.000839658 -489.485) (-0.0100141 -0.0100141 -250.611) (-0.0013369 -0.0013369 -120.6) (-0.00536708 -0.00536708 -425.473) (0.0156169 0.0156169 -1616.15) (-0.0210053 -0.0210053 -3206.3) (0.00308803 0.00308803 -3908.78)
1350          (-0.00163131 -0.00163131 -1763.52) (-0.000627636 -0.000627636 -1512.44) (-0.000851894 -0.000851894 -1140.71) (-0.00106855 -0.00106855 -786.102) (-0.00223933 -0.00223933 -500.697) (-0.0175191 -0.0175191 -261.7) (-0.000849038 -0.000849038 -135.121) (0.00582139 0.00582139 -460.306) (-0.0232559 -0.0232559 -1650.67) (0.0269929 0.0269929 -3172.76) (0.00282084 0.00282084 -3835.9)
1400          (-0.00184503 -0.00184503 -1732.29) (-0.000358533 -0.000358533 -1492.77) (-0.000722462 -0.000722462 -1135.24) (-0.00115384 -0.00115384 -791.107) (-0.00186302 -0.00186302 -511.236) (-0.0101405 -0.0101405 -272.084) (-0.00139939 -0.00139939 -150.368) (0.00830492 0.00830492 -494.961) (-0.0191653 -0.0191653 -1681.76) (0.0220548 0.0220548 -3139.65) (-0.00492761 -0.00492761 -3766.92)
1450          (-0.000862438 -0.000862438 -1702.68) (-0.000486633 -0.000486633 -1473.83) (-5.38115e-05 -5.38115e-05 -1129.6) (0.000316532 0.000316532 -795.482) (-0.000599985 -0.000599985 -521.165) (-0.0306142 -0.0306142 -282.474) (0.00577104 0.00577104 -166.291) (-0.00161477 -0.00161477 -529.305) (0.0228942 0.0228942 -1709.71) (-0.0216049 -0.0216049 -3107.05) (-0.00576841 -0.00576841 -3701.56)
1500          (-0.00105358 -0.00105358 -1674.55) (-0.00125505 -0.00125505 -1455.58) (-0.00112988 -0.00112988 -1123.82) (-0.000439441 -0.000439441 -799.295) (0.00139632 0.00139632 -530.545) (-0.0109608 -0.0109608 -292.855) (-0.0055106 -0.0055106 -182.829) (0.00951165 0.00951165 -563.244) (-0.0187006 -0.0187006 -1734.75) (0.019373 0.019373 -3075.08) (0.0010509 0.0010509 -3639.49)
1550          (0.00309551 0.00309551 -1647.78) (0.000870114 0.000870114 -1438) (-0.000139234 -0.000139234 -1117.95) (-0.00161481 -0.00161481 -802.617) (-0.00354284 -0.00354284 -539.415) (-0.0240694 -0.0240694 -302.619) (0.00828277 0.00828277 -199.935) (-0.00484598 -0.00484598 -596.633) (0.018508 0.018508 -1757.2) (-0.0174774 -0.0174774 -3043.69) (-0.00421102 -0.00421102 -3580.43)
1600          (-0.00742198 -0.00742198 -1622.27) (-0.00228662 -0.00228662 -1421.03) (-0.000398774 -0.000398774 -1112.02) (0.00154025 0.00154025 -805.502) (0.00314596 0.00314596 -547.839) (-0.0119527 -0.0119527 -312.426) (-0.00420978 -0.00420978 -217.537) (0.0148115 0.0148115 -629.43) (-0.00844919 -0.00844919 -1777.23) (0.00969959 0.00969959 -3012.98) (-0.00959707 -0.00959707 -3524.16)
1650          (0.00434458 0.00434458 -1597.92) (0.000253417 0.000253417 -1404.65) (-0.00114869 -0.00114869 -1106.05) (-0.00240394 -0.00240394 -808.008) (-0.00376699 -0.00376699 -555.856) (-0.0235207 -0.0235207 -322.05) (0.00875448 0.00875448 -235.602) (-0.00233521 -0.00233521 -661.526) (0.0122083 0.0122083 -1795.11) (-0.0123431 -0.0123431 -2982.89) (-0.00439881 -0.00439881 -3470.49)
1700          (-0.00792292 -0.00792292 -1574.64) (-0.00183376 -0.00183376 -1388.82) (0.000107185 0.000107185 -1100.07) (0.00186786 0.00186786 -810.178) (0.00256751 0.00256751 -563.514) (-0.0137748 -0.0137748 -331.551) (-0.00279888 -0.00279888 -254.047) (0.0108052 0.0108052 -692.898) (-0.00281461 -0.00281461 -1810.98) (0.00504988 0.00504988 -2953.5) (-0.00853105 -0.00853105 -3419.18)
1750          (0.00484921 0.00484921 -1552.37) (0.000140959 0.000140959 -1373.53) (-0.001203 -0.001203 -1094.1) (-0.00212055 -0.00212055 -812.058) (-0.00237626 -0.00237626 -570.848) (-0.0188328 -0.0188328 -340.92) (0.00674855 0.00674855 -272.839) (0.00150684 0.00150684 -723.476) (0.00623099 0.00623099 -1825.07) (-0.00850876 -0.00850876 -2924.75) (-0.0041374 -0.0041374 -3370.11)
1800          (-0.00797986 -0.00797986 -1531.03) (-0.0017824 -0.0017824 -1358.75) (-0.000127746 -0.000127746 -1088.16) (0.00106863 0.00106863 -813.683) (0.000643169 0.000643169 -577.896) (-0.0173123 -0.0173123 -350.19) (8.09929e-05 8.09929e-05 -291.909) (0.00620588 0.00620588 -753.244) (0.00183751 0.00183751 -1837.52) (0.00166542 0.00166542 -2896.69) (-0.00765311 -0.00765311 -3323.09)
1850          (-0.00776742 -0.00776742 -1510.56) (-0.00202446 -0.00202446 -1344.45) (-0.000698287 -0.000698287 -1082.26) (0.000215373 0.000215373 -815.091) (-0.000348169 -0.000348169 -584.692) (-0.0178098 -0.0178098 -359.371) (0.00174494 0.00174494 -311.215) (0.0046046 0.0046046 -782.169) (0.00368881 0.00368881 -1848.49) (0.000194287 0.000194287 -2869.27) (-0.00762975 -0.00762975 -3278.01)
1900          (0.00270551 0.00270551 -1490.91) (-8.87628e-05 -8.87628e-05 -1330.61) (0.000620158 0.000620158 -1076.42) (0.00113761 0.00113761 -816.317) (0.0011165 0.0011165 -591.282) (-0.0229757 -0.0229757 -368.693) (0.00331858 0.00331858 -330.705) (0.00729506 0.00729506 -810.244) (-0.000170788 -0.000170788 -1858.1) (-0.00571 -0.00571 -2842.5) (8.43663e-05 8.43663e-05 -3234.74)
1950          (0.00233203 0.00233203 -1472.02) (-6.41564e-05 -6.41564e-05 -1317.21) (0.00104796 0.00104796 -1070.65) (0.00190861 0.00190861 -817.382) (0.0022938 0.0022938 -597.662) (-0.0201744 -0.0201744 -377.722) (0.00183676 0.00183676 -350.332) (0.00899725 0.00899725 -837.452) (-0.0016485 -0.0016485 -1866.49) (-0.00513374 -0.00513374 -2816.37) (-0.000122553 -0.000122553 -3193.14)
2000          (-0.00569702 -0.00569702 -1453.86) (-0.00242387 -0.00242387 -1304.24) (-0.00312304 -0.00312304 -1064.96) (-0.00340851 -0.00340851 -818.309) (-0.00401754 -0.00401754 -603.856) (-0.0224754 -0.0224754 -386.49) (0.0067269 0.0067269 -370.055) (0.000356908 0.000356908 -863.786) (0.00796787 0.00796787 -1873.77) (-0.00168453 -0.00168453 -2790.88) (-0.00839147 -0.00839147 -3153.1)
2050          (-0.00356309 -0.00356309 -1436.37) (-0.00145027 -0.00145027 -1291.67) (-0.00283447 -0.00283447 -1059.35) (-0.00377978 -0.00377978 -819.132) (-0.00498092 -0.00498092 -609.927) (-0.0262007 -0.0262007 -395.684) (0.00204107 0.00204107 -389.831) (-0.00997588 -0.00997588 -889.264) (0.00476062 0.00476062 -1880.03) (0.00321775 0.00321775 -2765.99) (0.00178443 0.00178443 -3114.57)
2100          (-0.000811329 -0.000811329 -1419.5) (-0.00083851 -0.00083851 -1279.48) (-0.00213489 -0.00213489 -1053.84) (-0.00312231 -0.00312231 -819.869) (-0.00434306 -0.00434306 -615.867) (-0.0121155 -0.0121155 -404.389) (0.00024839 0.00024839 -409.614) (-0.0104898 -0.0104898 -913.884) (0.00197148 0.00197148 -1885.37) (0.00424732 0.00424732 -2741.7) (0.00794279 0.00794279 -3077.44)
2150          (-0.000552726 -0.000552726 -1403.25) (-0.000871695 -0.000871695 -1267.66) (-0.00186261 -0.00186261 -1048.42) (-0.00269939 -0.00269939 -820.535) (-0.00395612 -0.00395612 -621.699) (-0.0114743 -0.0114743 -413.219) (-0.00167982 -0.00167982 -429.377) (-0.0118365 -0.0118365 -937.659) (-0.0001974 -0.0001974 -1889.87) (0.00641595 0.00641595 -2718) (0.00902029 0.00902029 -3041.63)
2200          (-0.000902698 -0.000902698 -1387.56) (-0.00110091 -0.00110091 -1256.2) (-0.00135036 -0.00135036 -1043.12) (-0.00183032 -0.00183032 -821.149) (-0.00353969 -0.00353969 -627.44) (-0.0127725 -0.0127725 -422.017) (-0.00291893 -0.00291893 -449.085) (-0.0102367 -0.0102367 -960.602) (-0.00184409 -0.00184409 -1893.61) (0.00757499 0.00757499 -2694.88) (0.00883906 0.00883906 -3007.06)
2250          (0.00880313 0.00880313 -1372.43) (0.00561025 0.00561025 -1245.1) (0.00399267 0.00399267 -1037.93) (0.00307954 0.00307954 -821.733) (0.00254763 0.00254763 -633.124) (-0.000714756 -0.000714756 -430.991) (-0.0145501 -0.0145501 -468.702) (-0.0139874 -0.0139874 -982.734) (-0.005799 -0.005799 -1896.66) (0.00546832 0.00546832 -2672.3) (0.0167587 0.0167587 -2973.68)
2300          (0.00802545 0.00802545 -1357.8) (0.00574699 0.00574699 -1234.32) (0.00402769 0.00402769 -1032.86) (0.0028576 0.0028576 -822.287) (0.00164024 0.00164024 -638.724) (-0.00244757 -0.00244757 -439.719) (-0.0135555 -0.0135555 -488.21) (-0.0158777 -0.0158777 -1004.06) (-0.00430502 -0.00430502 -1899.09) (0.00552863 0.00552863 -2650.27) (0.0166694 0.0166694 -2941.4)
2350          (0.000265981 0.000265981 -1343.65) (0.000430192 0.000430192 -1223.85) (0.000955894 0.000955894 -1027.9) (0.000147233 0.000147233 -822.826) (-0.0033846 -0.0033846 -644.264) (-0.0170298 -0.0170298 -448.404) (-0.0125838 -0.0125838 -507.58) (-0.0141834 -0.0141834 -1024.61) (-0.00728721 -0.00728721 -1900.94) (0.0143212 0.0143212 -2628.77) (0.0114907 0.0114907 -2910.18)
2400          (0.00771243 0.00771243 -1329.98) (0.00612463 0.00612463 -1213.71) (0.003524 0.003524 -1023.08) (0.00202954 0.00202954 -823.376) (0.00138669 0.00138669 -649.768) (-0.00623893 -0.00623893 -457.125) (-0.00762474 -0.00762474 -526.798) (-0.0127188 -0.0127188 -1044.4) (2.8455e-06 2.84548e-06 -1902.27) (0.00117703 0.00117703 -2607.78) (0.0118344 0.0118344 -2879.97)
2450          (0.00704839 0.00704839 -1316.75) (0.00619247 0.00619247 -1203.88) (0.00415578 0.00415578 -1018.38) (0.00377414 0.00377414 -823.929) (0.00446679 0.00446679 -655.221) (0.000766648 0.000766648 -465.774) (-0.00620456 -0.00620456 -545.843) (-0.00860793 -0.00860793 -1063.45) (0.00180666 0.00180666 -1903.14) (-0.00267794 -0.00267794 -2587.28) (0.00896819 0.00896819 -2850.71)
2500          (0.00863277 0.00863277 -1303.95) (0.00802148 0.00802148 -1194.33) (0.00621876 0.00621876 -1013.82) (0.00630778 0.00630778 -824.508) (0.0092163 0.0092163 -660.664) (0.0137893 0.0137893 -474.388) (-0.00880941 -0.00880941 -564.664) (-0.00655102 -0.00655102 -1081.79) (0.00149113 0.00149113 -1903.57) (-0.00725632 -0.00725632 -2567.27) (0.00873148 0.00873148 -2822.36)
2550          (0.0100986 0.0100986 -1291.55) (0.0087028 0.0087028 -1185.06) (0.00721736 0.00721736 -1009.38) (0.00702238 0.00702238 -825.111) (0.0125833 0.0125833 -666.089) (0.0213129 0.0213129 -482.969) (-0.0109689 -0.0109689 -583.259) (-0.00521871 -0.00521871 -1099.43) (0.00160394 0.00160394 -1903.62) (-0.0117661 -0.0117661 -2547.74) (0.00811738 0.00811738 -2794.87)
2600          (0.0112484 0.0112484 -1279.54) (0.00824271 0.00824271 -1176.07) (0.00692681 0.00692681 -1005.08) (0.00625221 0.00625221 -825.745) (0.0137179 0.0137179 -671.499) (0.02345 0.02345 -491.519) (-0.0121653 -0.0121653 -601.617) (-0.0046629 -0.0046629 -1116.4) (0.00241501 0.00241501 -1903.31) (-0.0145431 -0.0145431 -2528.66) (0.0073518 0.0073518 -2768.22)
2650          (0.0118829 0.0118829 -1267.89) (0.00719155 0.00719155 -1167.33) (0.00582842 0.00582842 -1000.9) (0.00479824 0.00479824 -826.418) (0.0130674 0.0130674 -676.9) (0.0218586 0.0218586 -500.04) (-0.0124623 -0.0124623 -619.725) (-0.0046371 -0.0046371 -1132.72) (0.00350892 0.00350892 -1902.68) (-0.0155261 -0.0155261 -2510.03) (0.00664647 0.00664647 -2742.35)
2700          (0.012028 0.012028 -1256.61) (0.00607847 0.00607847 -1158.85) (0.00454477 0.00454477 -996.858) (0.00331122 0.00331122 -827.135) (0.0115606 0.0115606 -682.296) (0.0186176 0.0186176 -508.53) (-0.0122306 -0.0122306 -637.573) (-0.0048483 -0.0048483 -1148.4) (0.00450418 0.00450418 -1901.76) (-0.0154101 -0.0154101 -2491.83) (0.00608548 0.00608548 -2717.24)
2750          (0.0118263 0.0118263 -1245.67) (0.00515461 0.00515461 -1150.63) (0.00342737 0.00342737 -992.948) (0.00208176 0.00208176 -827.9) (0.00987205 0.00987205 -687.691) (0.0150576 0.0150576 -516.989) (-0.011793 -0.011793 -655.15) (-0.00510168 -0.00510168 -1163.49) (0.00525057 0.00525057 -1900.58) (-0.0148222 -0.0148222 -2474.06) (0.00566012 0.00566012 -2692.85)
2800          (0.00107238 0.00107238 -1235.04) (0.000570156 0.000570156 -1142.64) (-0.000368709 -0.000368709 -989.174) (-0.0013432 -0.0013432 -828.725) (-0.00466868 -0.00466868 -693.063) (-0.0144634 -0.0144634 -525.134) (-0.00292598 -0.00292598 -672.422) (-0.00468105 -0.00468105 -1177.98) (-0.00331392 -0.00331392 -1899.15) (0.00711132 0.00711132 -2456.7) (0.00677095 0.00677095 -2669.15)
2850          (0.00292032 0.00292032 -1224.78) (0.000276852 0.000276852 -1134.94) (0.000524019 0.000524019 -985.57) (0.000519096 0.000519096 -829.608) (0.00428913 0.00428913 -698.434) (0.00890174 0.00890174 -533.325) (-0.00284932 -0.00284932 -689.425) (-0.00139636 -0.00139636 -1191.91) (0.000809206 0.000809206 -1897.51) (0.00466508 0.00466508 -2439.73) (-0.00273815 -0.00273815 -2646.11)
2900          (0.00177923 0.00177923 -1214.84) (-0.00173307 -0.00173307 -1127.47) (-0.000137967 -0.000137967 -982.102) (0.0010169 0.0010169 -830.543) (-0.00402529 -0.00402529 -703.782) (-0.00125591 -0.00125591 -541.587) (-0.00459185 -0.00459185 -706.142) (0.000832574 0.000832574 -1205.3) (-0.00423871 -0.00423871 -1895.68) (0.00283737 0.00283737 -2423.15) (0.0126524 0.0126524 -2623.72)
2950          (-0.00238584 -0.00238584 -1205.2) (0.000853457 0.000853457 -1120.23) (-0.00082392 -0.00082392 -978.763) (-0.00237481 -0.00237481 -831.532) (0.00411957 0.00411957 -709.148) (-0.000276002 -0.000276002 -549.852) (0.00474846 0.00474846 -722.562) (0.00106971 0.00106971 -1218.16) (0.00635562 0.00635562 -1893.66) (-0.00654244 -0.00654244 -2406.93) (-0.00805761 -0.00805761 -2601.93)
3000          (0.000516623 0.000516623 -1195.84) (-0.00157106 -0.00157106 -1113.2) (0.000196689 0.000196689 -975.551) (0.00258847 0.00258847 -832.584) (-0.00280689 -0.00280689 -714.52) (-0.00130898 -0.00130898 -558.081) (-0.00341894 -0.00341894 -738.678) (-0.000572483 -0.000572483 -1230.52) (-0.0057542 -0.0057542 -1891.49) (0.00542772 0.00542772 -2391.09) (0.00873468 0.00873468 -2580.73)
3050          (-0.00211812 -0.00211812 -1186.75) (0.000852966 0.000852966 -1106.38) (-0.000302927 -0.000302927 -972.468) (-0.00276621 -0.00276621 -833.692) (0.00374598 0.00374598 -719.911) (0.000490946 0.000490946 -566.28) (0.00276983 0.00276983 -754.491) (0.000843063 0.000843063 -1242.39) (0.0068621 0.0068621 -1889.17) (-0.00556835 -0.00556835 -2375.6) (-0.00518626 -0.00518626 -2560.09)
3100          (0.00038964 0.00038964 -1177.94) (-0.00187529 -0.00187529 -1099.77) (-0.000180632 -0.000180632 -969.511) (0.0034195 0.0034195 -834.868) (-0.00305936 -0.00305936 -725.308) (-0.00169539 -0.00169539 -574.431) (-0.00189471 -0.00189471 -769.995) (-0.00032496 -0.00032496 -1253.79) (-0.0071382 -0.0071382 -1886.72) (0.00553057 0.00553057 -2360.46) (0.00776867 0.00776867 -2540.01)
3150          (0.00520524 0.00520524 -1169.38) (0.00316704 0.00316704 -1093.36) (0.00183791 0.00183791 -966.682) (0.000261349 0.000261349 -836.103) (-0.00114998 -0.00114998 -730.72) (-0.00215417 -0.00215417 -582.518) (-0.0185475 -0.0185475 -785.193) (-0.0167623 -0.0167623 -1264.74) (-0.00207386 -0.00207386 -1884.15) (0.0125809 0.0125809 -2345.65) (0.0163609 0.0163609 -2520.44)
3200          (0.00156437 0.00156437 -1161.08) (0.00173281 0.00173281 -1087.15) (0.000221614 0.000221614 -963.98) (-0.00282904 -0.00282904 -837.403) (0.00375311 0.00375311 -736.14) (-0.00293216 -0.00293216 -590.584) (-0.00094457 -0.00094457 -800.082) (-0.00576088 -0.00576088 -1275.26) (0.00494394 0.00494394 -1881.48) (0.00636079 0.00636079 -2331.17) (0.00587766 0.00587766 -2501.37)
3250          (0.00279 0.00279 -1153.02) (0.00145028 0.00145028 -1081.13) (0.00187378 0.00187378 -961.403) (0.00140685 0.00140685 -838.769) (-0.00211527 -0.00211527 -741.563) (-0.00197533 -0.00197533 -598.568) (-0.0158744 -0.0158744 -814.663) (-0.01046 -0.01046 -1285.36) (-0.00264671 -0.00264671 -1878.72) (0.00889237 0.00889237 -2317.01) (0.0134481 0.0134481 -2482.79)
3300          (5.52612e-05 5.52612e-05 -1145.3) (-3.85386e-05 -3.85386e-05 -1075.38) (2.14158e-05 2.14158e-05 -958.986) (0.000165147 0.000165147 -840.18) (5.56736e-05 5.56735e-05 -746.918) (0.000977199 0.000977199 -606.394) (-0.00682531 -0.00682531 -828.94) (-0.00517653 -0.00517653 -1295.06) (-0.000940629 -0.000940629 -1875.87) (0.00436286 0.00436286 -2303.15) (0.00613263 0.00613263 -2464.67)
3350          (0.00271999 0.00271999 -1137.74) (0.00546103 0.00546103 -1069.77) (0.00447351 0.00447351 -956.676) (0.00387672 0.00387672 -841.67) (-0.00106929 -0.00106929 -752.323) (-0.0139058 -0.0139058 -614.246) (-0.0454495 -0.0454495 -842.916) (-0.0377499 -0.0377499 -1304.37) (-0.00460976 -0.00460976 -1872.94) (0.0300189 0.0300189 -2289.59) (0.035387 0.035387 -2447.01)
3400          (0.0104413 0.0104413 -1130.31) (0.0072836 0.0072836 -1064.27) (0.00479058 0.00479058 -954.463) (0.000900879 0.000900879 -843.243) (-0.00387669 -0.00387669 -757.798) (-0.0164669 -0.0164669 -622.159) (-0.0249686 -0.0249686 -856.585) (-0.0205134 -0.0205134 -1313.31) (-0.00219273 -0.00219273 -1869.95) (0.0166642 0.0166642 -2276.32) (0.0229034 0.0229034 -2429.79)
3450          (0.00116177 0.00116177 -1123.34) (-2.59426e-05 -2.59427e-05 -1059.13) (-0.000558951 -0.000558951 -952.44) (-0.000852136 -0.000852136 -844.824) (-0.00104633 -0.00104633 -763.092) (0.00162879 0.00162879 -629.79) (0.00722227 0.00722227 -869.957) (0.00619872 0.00619872 -1321.9) (0.00102192 0.00102192 -1866.91) (-0.00461038 -0.00461038 -2263.34) (-0.00907944 -0.00907944 -2412.96)
3500          (0.00207688 0.00207688 -1116.4) (0.000672988 0.000672988 -1054.03) (0.000268416 0.000268416 -950.481) (-0.000236248 -0.000236248 -846.506) (-0.000551975 -0.000551975 -768.527) (-0.00459552 -0.00459552 -637.485) (-0.0077311 -0.0077311 -883.028) (-0.00619645 -0.00619645 -1330.14) (-0.000601953 -0.000601953 -1863.81) (0.00500673 0.00500673 -2250.63) (0.00787053 0.00787053 -2396.56)
3550          (0.00526424 0.00526424 -1109.78) (0.00136358 0.00136358 -1049.18) (0.000893736 0.000893736 -948.67) (0.000250637 0.000250637 -848.22) (-0.00411657 -0.00411657 -773.872) (-0.0109658 -0.0109658 -645.077) (-0.0139185 -0.0139185 -895.804) (-0.0110453 -0.0110453 -1338.06) (-0.000991321 -0.000991321 -1860.67) (0.00905974 0.00905974 -2238.19) (0.016182 0.016182 -2380.56)
3600          (0.00287542 0.00287542 -1103.35) (-0.000520791 -0.000520791 -1044.49) (0.00102667 0.00102667 -946.968) (0.00186621 0.00186621 -849.991) (-0.00565467 -0.00565467 -779.217) (-0.00878631 -0.00878631 -652.6) (-0.00446421 -0.00446421 -908.293) (-0.00366951 -0.00366951 -1345.65) (-0.000568621 -0.000568621 -1857.48) (0.00265385 0.00265385 -2226.01) (0.0060301 0.0060301 -2364.92)
3650          (0.00402517 0.00402517 -1097.14) (0.000879412 0.000879412 -1039.98) (-0.000162278 -0.000162278 -945.394) (-0.00126188 -0.00126188 -851.816) (-0.00162716 -0.00162716 -784.532) (-0.00599605 -0.00599605 -660.044) (-0.00451541 -0.00451541 -920.498) (-0.00370081 -0.00370081 -1352.95) (-0.000630835 -0.000630835 -1854.27) (0.00255438 0.00255438 -2214.08) (0.00581823 0.00581823 -2349.65)
3700          (0.0036248 0.0036248 -1091.16) (0.000731822 0.000731822 -1035.69) (-0.000180372 -0.000180372 -943.966) (-0.00104035 -0.00104035 -853.683) (-0.00136402 -0.00136402 -789.777) (-0.00670514 -0.00670514 -667.387) (-0.00442144 -0.00442144 -932.427) (-0.00360687 -0.00360687 -1359.95) (-0.000609513 -0.000609513 -1851.02) (0.00249282 0.00249282 -2202.39) (0.00560035 0.00560035 -2334.72)
3750          (0.00339579 0.00339579 -1085.37) (0.000672381 0.000672381 -1031.54) (-0.000170064 -0.000170064 -942.632) (-0.000931237 -0.000931237 -855.6) (-0.00123319 -0.00123319 -795.037) (-0.00719261 -0.00719261 -674.672) (-0.00420126 -0.00420126 -944.075) (-0.00338539 -0.00338539 -1366.68) (-0.000548257 -0.000548257 -1847.76) (0.00236391 0.00236391 -2190.94) (0.00528249 0.00528249 -2320.14)
3800          (0.00317073 0.00317073 -1079.75) (0.000619279 0.000619279 -1027.54) (-0.000150705 -0.000150705 -941.392) (-0.000831317 -0.000831317 -857.566) (-0.00113522 -0.00113522 -800.306) (-0.00755596 -0.00755596 -681.894) (-0.00397767 -0.00397767 -955.447) (-0.00316914 -0.00316914 -1373.13) (-0.000491408 -0.000491408 -1844.47) (0.00223949 0.00223949 -2179.73) (0.00498056 0.00498056 -2305.89)