# Probe 0 (0.0015 0.0015 0)
# Probe 1 (0.0015 0.0015 0.002)
# Probe 2 (0.0015 0.0015 0.004)
# Probe 3 (0.0015 0.0015 0.006)
# Probe 4 (0.0015 0.0015 0.008)
# Probe 5 (0.0015 0.0015 0.01)
# Probe 6 (0.0015 0.0015 0.012)
# Probe 7 (0.0015 0.0015 0.014)
# Probe 8 (0.0015 0.0015 0.016)
# Probe 9 (0.0015 0.0015 0.018)
# Probe 10 (0.0015 0.0015 0.02)
# Time        0             1             2             3             4             5             6             7             8             9             10           
50            115752        71017         23998.6       9641.43       3652.01       2009.57       1373.01       1334.71       1673.73       2820.07       6817.46      
100           143553        102324        41907.6       17108.5       6083.25       2923.7        1640.14       1467.87       1818.89       3088.89       7187.63      
150           158663        123906        62948.6       27776.8       9868.79       4386.75       2070.72       1665.8        1997.87       3393.61       7593.99      
200           167892        137604        81282.2       40602.3       15207.9       6551.82       2722.35       1951.19       2216.82       3726.07       8002.77      
250           174159        146974        95326.6       53772.6       22127.3       9592.66       3672.68       2355.32       2485.86       4082.25       8394.92      
300           178761        153885        106088        65729.6       30300.7       13659.1       5022.91       2922.04       2821.22       4462.93       8763.88      
350           182331        159261        114622        75970.9       39055.2       18790.7       6889.19       3706.32       3245.12       4873.29       9110.96      
400           185212        163608        121603        84667.6       47671         24832.2       9386.15       4774.17       3786.66       5322.83       9442.25      
450           187605        167224        127457        92118.2       55705         31432.4       12595.1       6201.47       4484.46       5826.93       9767.62      
500           189637        170298        132463        98582.1       63024.4       38178.9       16523.9       8065.44       5385.02       6406.36       10099.7      
550           191394        172959        136816        104263        69659.2       44759.6       21080.5       10434.8       6543.58       7088.56       10453.6      
600           192939        175298        140658        109319        75690.3       51017.2       26084.2       13349.7       8020.17       7907.4        10847.2      
650           194314        177383        144094        113869        81204         56905.7       31320         16803         9872.73       8902          11300.2      
700           195554        179264        147200        118005        86277.7       62433         36606         20733.9       12146.9       10113.8       11833.7      
750           196683        180977        150036        121800        90977.6       67629.2       41828.5       25037.1       14862         11581.1       12468.3      
800           197721        182553        152651        125310        95360.2       72531.3       46930.9       29584.1       17995.7       13329.4       13220.7      
850           198683        184015        155079        128582        99472.5       77173.5       51885.2       34245.3       21476.8       15361.5       14099.8      
900           199582        185380        157351        131651        103349        81580.5       56669.9       38904.8       25194.4       17649.1       15102.7      
950           200426        186662        159486        134542        107014        85764.7       61261.4       43468         29019.5       20133         16212.7      
1000          201220        187869        161498        137268        110476        89727.9       65634.5       47861.6       32829.2       22730.8       17400.2      
1050          201969        189007        163394        139837        113740        93464.8       69764.7       52031.4       36522         25351.5       18627.1      
1100          202673        190076        165176        142249        116801        96966.8       73631.2       55938.7       40023.5       27910.7       19852.4      
1150          203331        191077        166842        144503        119656        100225        77218.5       59558.3       43284.6       30340.7       21038.4      
1200          203945        192008        168391        146594        122298        103233        80516.9       62875.9       46276.2       32595.7       22155.3      
1250          204512        192870        169822        148522        124726        105988        83523.4       65887         48986.4       34649.5       23183.3      
1300          205033        193660        171133        150285        126939        108492        86241.1       68596.1       51416.2       36492.9       24112.2      
1350          205507        194380        172325        151885        128941        110749        88679.2       71014.5       53575.8       38129.4       24939.4      
1400          205935        195030        173401        153327        130739        112769        90850.5       73158         55481         39568.9       25668.4      
1450          206320        195613        174366        154616        132342        114565        92772         75046.5       57151.6       40827.2       26305.4      
1500          206664        196134        175225        155762        133763        116153        94462.9       76701.3       58609.1       41920.8       26858.8      
1550          206968        196595        175986        156775        135016        117549        95943.6       78144.8       59875.3       42867.6       27337.4      
1600          207236        197002        176655        157666        136115        118770        97234.6       79399.3       60971.8       43684.9       27749.9      
1650          207471        197358        177242        158445        137075        119835        98356.2       80486         61918.6       44388.6       28104.8      
1700          207677        197669        177754        159124        137909        120759        99327.6       81424.7       62734.4       44993.5       28409.3      
1750          207855        197940        178198        159713        138633        121559        100166        82233.8       63435.8       45512.5       28670.4      
1800          208010        198174        178583        160223        139258        122249        100889        82929.8       64038.1       45957.2       28893.9      
1850          208144        198377        178916        160663        139797        122844        101511        83527.4       64554.5       46338         29085.1      
1900          208259        198551        179202        161042        140261        123355        102045        84039.9       64996.6       46663.7       29248.6      
1950          208358        198702        179449        161368        140659        123794        102502        84478.8       65374.9       46942.1       29388.2      
2000          208444        198831        179661        161648        141001        124170        102894        84854.4       65698.3       47179.8       29507.4      
2050          208517        198942        179842        161888        141294        124493        103230        85175.4       65974.4       47382.7       29609        
2100          208580        199036        179998        162093        141545        124768        103516        85449.7       66210.2       47555.8       29695.8      
2150          208633        199118        180131        162269        141759        125004        103761        85683.8       66411.4       47703.5       29769.7      
2200          208679        199187        180245        162419        141942        125205        103970        85883.5       66583         47829.3       29832.7      
2250          208718        199246        180342        162547        142098        125376        104148        86053.9       66729.3       47936.6       29886.4      
2300          208751        199297        180425        162656        142231        125523        104300        86199.1       66853.9       48028         29932.1      
2350          208780        199340        180495        162749        142345        125647        104430        86322.8       66960.1       48105.8       29971.1      
2400          208804        199376        180555        162828        142442        125753        104540        86427.9       67050.4       48172         30004.3      
2450          208825        199408        180607        162896        142524        125844        104634        86517.5       67127.2       48228.3       30032.5      
2500          208842        199434        180650        162953        142593        125920        104713        86593.4       67192.3       48276         30056.2      
2550          208857        199457        180687        163002        142653        125985        104781        86658         67247.7       48316.6       30076.6      
2600          208870        199475        180718        163042        142702        126040        104838        86712.3       67294.4       48351         30093.8      
2650          208880        199492        180744        163077        142745        126087        104886        86758.7       67334.1       48380         30108.4      
2700          208889        199505        180767        163107        142782        126127        104928        86798.4       67368.2       48405         30120.9      
2750          208897        199517        180785        163132        142812        126160        104962        86831.1       67396.2       48425.6       30131.1      
2800          208904        199527        180802        163153        142838        126189        104992        86859.7       67420.7       48443.6       30140.1      
2850          208909        199535        180815        163171        142859        126213        105016        86883.3       67441         48458.4       30147.6      
2900          208914        199542        180827        163186        142878        126233        105038        86903.6       67458.5       48471.3       30154        
2950          208918        199548        180837        163199        142894        126250        105056        86920.9       67473.4       48482.1       30159.5      
3000          208921        199553        180845        163211        142908        126266        105072        86936         67486.3       48491.6       30164.2      
3050          208924        199558        180852        163220        142919        126278        105085        86948.3       67496.8       48499.3       30168.1      
3100          208926        199561        180858        163227        142928        126288        105095        86958.1       67505.3       48505.6       30171.2      
3150          208928        199564        180863        163235        142937        126298        105105        86967.6       67513.4       48511.5       30174.2      
3200          208930        199567        180867        163240        142944        126305        105113        86975.3       67520         48516.3       30176.6      
3250          208931        199569        180871        163245        142949        126311        105119        86981.1       67525.1       48520.2       30178.5      
3300          208933        199571        180874        163249        142954        126317        105125        86986.8       67529.9       48523.6       30180.2      
3350          208934        199572        180876        163252        142958        126320        105128        86990.3       67533         48525.9       30181.4      
3400          208935        199574        180879        163255        142962        126325        105133        86995.2       67537.2       48529         30183        
3450          208935        199575        180880        163257        142965        126328        105137        86998.4       67540         48531.1       30184        
3500          208936        199575        180881        163259        142966        126330        105138        87000         67541.4       48532.1       30184.5      
3550          208936        199576        180882        163260        142968        126331        105140        87001.6       67542.8       48533.2       30185.1      
3600          208936        199576        180883        163261        142969        126333        105142        87003.2       67544.2       48534.2       30185.6      
3650          208937        199577        180884        163262        142970        126334        105143        87004.8       67545.6       48535.4       30186.2      
3700          208937        199577        180884        163262        142970        126334        105143        87004.8       67545.6       48535.4       30186.2      
3750          208937        199577        180884        163262        142970        126334        105143        87004.8       67545.6       48535.4       30186.2      
3800          208937        199577        180884        163262        142970        126334        105143        87004.8       67545.6       48535.4       30186.2      
3850          208937        199577        180884        163262        142970        126334        105143        87004.8       67545.6       48535.4       30186.2      
3900          208937        199577        180884        163262        142970        126334        105143        87004.8       67545.6       48535.4       30186.2      
3950          208937        199577        180884        163262        142970        126334        105143        87004.8       67545.6       48535.4       30186.2      
4000          208937        199577        180884        163262        142970        126334        105143        87004.8       67545.6       48535.4       30186.2      
4050          208937        199577        180884        163262        142970        126334        105143        87004.8       67545.6       48535.4       30186.2      
4100          208937        199577        180884        163262        142970        126334        105143        87004.8       67545.6       48535.4       30186.2      
4150          208937        199577        180884        163262        142970        126334        105143        87004.8       67545.6       48535.4       30186.2      
4200          208937        199577        180884        163262        142970        126334        105143        87004.8       67545.6       48535.4       30186.2      
4250          208937        199577        180884        163262        142970        126334        105143        87004.8       67545.6       48535.4       30186.2      
4300          208937        199577        180884        163262        142970        126334        105143        87004.8       67545.6       48535.4       30186.2      
4350          208937        199577        180884        163262        142970        126334        105143        87004.8       67545.6       48535.4       30186.2      
4400          208937        199577        180884        163262        142970        126334        105143        87004.8       67545.6       48535.4       30186.2      
4450          208937        199577        180884        163262        142970        126334        105143        87004.8       67545.6       48535.4       30186.2      
4500          208937        199577        180884        163262        142970        126334        105143        87004.8       67545.6       48535.4       30186.2      
4550          208937        199577        180884        163262        142970        126334        105143        87004.8       67545.6       48535.4       30186.2      
4600          208937        199577        180884        163262        142970        126334        105143        87004.8       67545.6       48535.4       30186.2      
4650          208937        199577        180884        163262        142970        126334        105143        87004.8       67545.6       48535.4       30186.2      
4700          208937        199577        180884        163262        142970        126334        105143        87004.8       67545.6       48535.4       30186.2      
4750          208937        199577        180884        163262        142970        126334        105143        87004.8       67545.6       48535.4       30186.2      
4800          208937        199577        180884        163262        142970        126334        105143        87004.8       67545.6       48535.4       30186.2      
4850          208937        199577        180884        163262        142970        126334        105143        87004.8       67545.6       48535.4       30186.2      
4900          208937        199577        180884        163262        142970        126334        105143        87004.8       67545.6       48535.4       30186.2      
4950          208937        199577        180884        163262        142970        126334        105143        87004.8       67545.6       48535.4       30186.2      
5000          208937        199577        180884        163262        142970        126334        105143        87004.8       67545.6       48535.4       30186.2      
