ITEM: TIMESTEP
5000
ITEM: NUMBER OF ATOMS
1440
ITEM: BOX BOUNDS ff ff ff
0 0.003
0 0.003
0 0.02
ITEM: ATOMS x y z f_Temp[0] 
0.000974258 0.00035646 0.000190185 981.818 
0.00141496 0.000203667 0.000238934 981.364 
0.0020181 0.00021545 0.000431598 979.381 
0.00240348 0.000225445 0.000323367 980.526 
0.00026833 0.000827695 0.000414885 980.286 
0.000788655 0.000927296 0.000410164 981.123 
0.00125381 0.000741301 0.000261749 982.912 
0.00267588 0.000579404 0.000292279 981.084 
0.000337074 0.001207 0.000367367 980.821 
0.00103285 0.00114042 0.000213648 983.519 
0.00185894 0.00119968 0.000438262 981.182 
0.00265896 0.00115131 0.000320667 981.398 
0.000273747 0.00186244 0.000288539 981.051 
0.000947738 0.00162504 0.000297997 982.553 
0.000569499 0.00157809 0.00025548 982.575 
0.00125405 0.00186905 0.000278639 982.87 
0.00170921 0.00166984 0.000196981 983.669 
0.00215063 0.00163093 0.000266289 982.794 
0.0028075 0.00163182 0.000339412 980.751 
0.000934753 0.00238579 0.000251951 982.478 
0.00225152 0.00222318 0.000192114 982.924 
0.000301454 0.00254305 0.000229934 981.191 
0.00129088 0.00280223 0.000297083 980.893 
0.00196827 0.00274404 0.000323225 980.681 
0.00252785 0.00262373 0.000337426 980.198 
0.000214758 0.000431077 0.000693494 978.026 
0.000972292 0.000313983 0.000774527 977.135 
0.000637076 0.000342719 0.00053611 979.628 
0.00176571 0.00029649 0.000740957 977.991 
0.00253843 0.000394129 0.000812287 977.232 
0.000392925 0.000892314 0.000833582 976.803 
0.000738122 0.000612787 0.000787445 977.477 
0.00154424 0.000962461 0.000563836 979.982 
0.00245635 0.00090695 0.000780076 977.605 
0.00205454 0.000737733 0.000481259 979.957 
0.000670881 0.00148921 0.00062489 979.15 
0.00085953 0.00111276 0.000777641 977.603 
0.00112444 0.00144423 0.000711531 978.352 
0.00115333 0.00100352 0.000542578 980.171 
0.00226644 0.00113471 0.000527705 980.221 
0.00271484 0.00132053 0.000663154 978.73 
0.000697858 0.00189207 0.000501258 979.848 
0.00145736 0.00189975 0.000796898 977.374 
0.00184664 0.00152669 0.000665362 978.851 
0.00210905 0.00188047 0.00077048 977.626 
0.00248694 0.00193259 0.000467087 980.593 
0.000408888 0.00218874 0.000596983 978.522 
0.00123051 0.00222408 0.000656243 978.724 
0.00183383 0.00223407 0.000467557 980.69 
0.00231043 0.00234885 0.000828431 976.568 
0.00267295 0.00222033 0.000836021 976.471 
0.000611691 0.00269138 0.00063781 978.334 
0.00115843 0.00269942 0.000755582 977.533 
0.00154522 0.00256679 0.00051631 980.033 
0.00229599 0.00274583 0.000773133 976.978 
0.000556745 0.000215813 0.00112402 974.079 
0.00139104 0.000252049 0.00120334 973.683 
0.00102103 0.000386814 0.00120578 973.318 
0.00200186 0.000189396 0.00122733 973.225 
0.000673862 0.000595477 0.00125255 972.739 
0.00107227 0.00069222 0.000950376 975.904 
0.00164881 0.000537821 0.00102769 975.265 
0.00212862 0.000671873 0.00114091 974.192 
0.000193568 0.00129215 0.00124071 972.444 
0.000681221 0.00127912 0.001183 973.192 
0.00153371 0.00112686 0.000998919 975.425 
0.00208598 0.00107349 0.00108289 974.638 
0.00273963 0.00104475 0.00124038 972.968 
0.000361212 0.00189832 0.000919357 975.715 
0.000842262 0.00190225 0.000907506 976.021 
0.000629321 0.00199061 0.00124615 972.293 
0.00117533 0.00170787 0.00122944 972.764 
0.00155016 0.00150064 0.00125213 972.669 
0.00196356 0.00157418 0.00130526 972.191 
0.00183149 0.00193153 0.00105814 974.596 
0.00239981 0.00168877 0.00097541 975.485 
0.00277912 0.00161808 0.00089884 976.264 
0.000310536 0.00218571 0.00116453 972.692 
0.000572406 0.00242025 0.000992863 974.848 
0.000934215 0.00234528 0.00089924 975.994 
0.0011834 0.00235278 0.001268 972.332 
0.00158554 0.00214501 0.00126447 972.477 
0.00180992 0.00238295 0.00106663 974.442 
0.00257245 0.00213287 0.00127127 972.286 
0.00083214 0.00277242 0.000972997 975.07 
0.00051709 0.00273798 0.00119316 972.248 
0.00145205 0.00261356 0.00119717 973.068 
0.00109846 0.00276565 0.00131883 971.615 
0.00196631 0.00272673 0.00107774 974.264 
0.00275008 0.00258661 0.000901253 975.722 
0.00280452 0.00255591 0.00127896 972.013 
0.000375936 0.000351474 0.0014541 970.601 
0.000947123 0.00030346 0.00164935 968.656 
0.00174679 0.000327198 0.00147053 971.023 
0.00231888 0.000443401 0.00158278 969.779 
0.000740266 0.000643498 0.00175055 967.479 
0.000981427 0.000835557 0.00142035 970.97 
0.00145391 0.000839487 0.00167021 968.659 
0.00238906 0.000891962 0.00134423 972.04 
0.00272158 0.000668127 0.00139942 971.598 
0.000188028 0.00119113 0.00170615 967.547 
0.000703896 0.00138444 0.00162245 968.437 
0.000580891 0.00102834 0.00163726 968.523 
0.00106749 0.0012909 0.00142341 970.822 
0.00136772 0.00122308 0.00164523 968.576 
0.00185037 0.00117916 0.00141944 971.072 
0.0023823 0.00124824 0.00151628 970.065 
0.00275107 0.00122968 0.00160074 969.171 
0.000442233 0.00161363 0.00140727 970.517 
0.00208782 0.00190886 0.00156457 969.399 
0.00229129 0.00165093 0.00175832 967.433 
0.00272843 0.00164379 0.00137104 971.419 
0.00273791 0.00198722 0.00158506 969.187 
0.000310529 0.00206862 0.00158554 968.405 
0.000202203 0.00243293 0.00150925 968.846 
0.000996137 0.00207718 0.00147643 969.963 
0.00239895 0.0021684 0.00164294 968.474 
0.000676478 0.00255788 0.00149671 968.93 
0.00109969 0.00250361 0.00160789 968.615 
0.00188151 0.00251129 0.00166044 968.425 
0.00158647 0.00276404 0.00155135 969.504 
0.00232758 0.00271763 0.00158577 968.964 
0.00125683 0.000497309 0.00179363 967.448 
0.00107528 0.000277582 0.00214937 963.355 
0.00175893 0.0002799 0.00188074 966.575 
0.0021784 0.000368615 0.00209364 964.137 
0.00259983 0.000376824 0.00182351 967.165 
0.000188357 0.000710078 0.00189426 965.782 
0.000496968 0.000542115 0.00212494 963.433 
0.000427024 0.000990498 0.00205124 964.059 
0.000952142 0.000656709 0.00209406 963.831 
0.0016631 0.000784692 0.00211143 963.764 
0.00194816 0.000667238 0.00181748 967.075 
0.00272802 0.000912496 0.00210911 963.84 
0.000283889 0.00132572 0.00221639 961.996 
0.000861312 0.00106975 0.00205548 964.067 
0.00105053 0.00134035 0.00187456 965.979 
0.00176487 0.00124307 0.0018791 966.186 
0.00229074 0.00148244 0.00215595 963.221 
0.00224716 0.00106618 0.00194049 965.632 
0.000490088 0.00190565 0.00216314 962.417 
0.000600567 0.00173072 0.00184998 965.879 
0.00134972 0.00177392 0.00191841 965.463 
0.00171599 0.00167843 0.00196948 965.126 
0.00272039 0.00158168 0.00195202 965.452 
0.00275593 0.00190833 0.00213347 963.452 
0.000455488 0.00238206 0.00213224 962.7 
0.000914038 0.00223409 0.00181761 966.082 
0.00129603 0.00244828 0.0019343 965.211 
0.00189685 0.00239938 0.00213266 963.373 
0.00183847 0.00209129 0.00182308 966.684 
0.00217388 0.00241544 0.0018767 966.05 
0.00266653 0.00232512 0.00209528 963.993 
0.000277194 0.00279385 0.0018276 965.422 
0.00158093 0.00275102 0.00208939 963.664 
0.000399133 0.000221002 0.00251244 959.22 
0.00106351 0.000442338 0.00252242 959.182 
0.00230317 0.000362371 0.00244753 960.18 
0.00277172 0.000267587 0.0022432 962.485 
0.000431652 0.000767203 0.00254525 958.766 
0.000783125 0.00098729 0.00259862 958.127 
0.00123079 0.000806473 0.00262772 957.945 
0.00144657 0.000514628 0.00231857 961.498 
0.00192888 0.00069509 0.00248267 959.725 
0.00239154 0.00067456 0.00222337 962.622 
0.00246027 0.000770238 0.00264623 957.895 
0.00044829 0.001418 0.0026418 957.327 
0.000838664 0.00142514 0.00230561 961.223 
0.00155495 0.00106654 0.00237699 960.714 
0.00186948 0.00137017 0.00247263 959.782 
0.00216881 0.00115061 0.00233951 961.243 
0.00266753 0.00116971 0.00257147 958.68 
0.000202167 0.00181944 0.00249192 958.975 
0.0011175 0.00173965 0.00240856 960.186 
0.00145362 0.00197473 0.00222993 962.117 
0.00163977 0.00166415 0.00260584 958.186 
0.00235304 0.00152421 0.00255987 958.801 
0.00218402 0.00187442 0.00237625 960.815 
0.00264454 0.00179695 0.00259965 958.504 
0.000912268 0.00248167 0.00231473 961.058 
0.00131103 0.00242419 0.00232089 961.051 
0.00234523 0.00220321 0.0025026 959.769 
0.000574916 0.00262 0.00250964 958.8 
0.00189276 0.00264553 0.00266302 957.817 
0.00245092 0.00268712 0.00265874 958.336 
0.00236453 0.00262839 0.00226985 962.325 
0.000219042 0.000436452 0.00300571 953.624 
0.00064564 0.000265095 0.00299584 953.77 
0.00102887 0.000214937 0.00295678 954.24 
0.00199722 0.000203869 0.00279156 956.23 
0.00256895 0.000259738 0.00274932 956.713 
0.00034795 0.000992113 0.00291957 954.541 
0.00146531 0.000506957 0.00280431 956.03 
0.00188427 0.000904293 0.00300269 953.786 
0.00276656 0.000630478 0.00292393 954.745 
0.000779579 0.00138356 0.0028496 955.259 
0.0010882 0.00135071 0.0030797 952.848 
0.00120601 0.00136428 0.00268872 957.196 
0.00154211 0.00122951 0.00284531 955.494 
0.00212668 0.001184 0.00280712 956.015 
0.000552558 0.00184069 0.00270745 956.796 
0.000642879 0.00186157 0.00307501 953.024 
0.00144648 0.00194582 0.00311076 952.687 
0.00197838 0.00162203 0.00277142 956.569 
0.00163691 0.00161364 0.00306052 953.241 
0.00218974 0.00199455 0.0029021 955.21 
0.00245675 0.00155259 0.00304498 953.601 
0.00261492 0.00193529 0.00304078 953.794 
0.000409255 0.00234191 0.00275976 956.304 
0.00108753 0.00210093 0.00276348 956.391 
0.00108523 0.00247257 0.00287504 955.302 
0.00165854 0.00210308 0.00269695 957.217 
0.00276898 0.00231709 0.00275482 957.232 
0.00136834 0.00272603 0.00288214 955.343 
0.000756856 0.00048697 0.00331019 950.159 
0.0014703 0.000393794 0.00328579 950.481 
0.00187335 0.000345779 0.00335566 949.747 
0.00248166 0.000235825 0.00336003 949.67 
0.000859155 0.000816295 0.00311245 952.404 
0.000642647 0.000961059 0.0035124 947.882 
0.00127076 0.000702771 0.00311203 952.453 
0.00165436 0.000784346 0.00335572 949.71 
0.00209381 0.000607632 0.00314097 952.192 
0.00213809 0.000939818 0.00347516 948.423 
0.00269837 0.000576933 0.00337593 949.472 
0.00116156 0.00132716 0.00350612 948.051 
0.0018859 0.00132698 0.00313424 952.347 
0.00157191 0.00114348 0.00328411 950.548 
0.00220345 0.00140837 0.00347235 948.631 
0.00242584 0.00111171 0.00321806 951.47 
0.0027516 0.00107851 0.0034634 948.702 
0.000300143 0.00150922 0.00326881 950.808 
0.000855106 0.00175823 0.00345909 948.75 
0.00144165 0.00173556 0.00352474 947.88 
0.00195305 0.00190406 0.00330696 950.543 
0.00236287 0.00182659 0.003325 950.462 
0.00106468 0.00207381 0.00318464 951.867 
0.00170996 0.00225516 0.0031625 952.297 
0.00252194 0.00229764 0.00326594 951.619 
0.00277006 0.0024142 0.00352794 948.622 
0.000907645 0.0027928 0.00347802 949.018 
0.000660056 0.00256289 0.00322622 952.073 
0.00135887 0.00257217 0.00339014 949.766 
0.00179834 0.00264018 0.00354271 948.015 
0.00223779 0.00259413 0.00348379 949.041 
0.00207269 0.00264071 0.00312361 952.951 
0.00242273 0.00279601 0.00321161 952.281 
0.00043699 0.000483762 0.00389811 943.398 
0.000229747 0.000351314 0.00355817 947.312 
0.000924449 0.000214766 0.00378499 944.71 
0.00246185 0.000249037 0.00376536 945.05 
0.000288139 0.000758109 0.00356497 947.264 
0.00107496 0.000890911 0.00363923 946.458 
0.00136982 0.000559087 0.00380683 944.496 
0.00179464 0.000577292 0.0036966 945.824 
0.00229355 0.000647621 0.00379373 944.701 
0.000444004 0.00137018 0.00392316 943.395 
0.000198557 0.00115152 0.00373795 945.434 
0.0007935 0.00136179 0.00371372 945.751 
0.00117405 0.00129842 0.00395632 942.897 
0.00167293 0.00100372 0.0036936 945.882 
0.00233053 0.00120828 0.00379732 944.886 
0.00111089 0.00169897 0.00394902 943.155 
0.00179471 0.0016547 0.00381704 944.528 
0.00251155 0.00161097 0.00362222 947.061 
0.000212174 0.00200705 0.00367897 946.571 
0.000680379 0.00212807 0.00363868 947.151 
0.0012032 0.0022175 0.00356346 947.723 
0.00192344 0.00217663 0.00377879 945.154 
0.00155895 0.00235637 0.00370179 946.165 
0.00150628 0.00204722 0.00395681 943.131 
0.00251354 0.0020706 0.00367552 946.536 
0.000190789 0.00258288 0.00361834 947.903 
0.00076323 0.0026077 0.00394134 943.769 
0.00175193 0.00273818 0.00398105 942.9 
0.00217621 0.00259681 0.00395563 943.237 
0.00256535 0.00278209 0.00364005 947.326 
0.00045322 0.000266713 0.00425722 939.131 
0.00189459 0.000380056 0.0040487 941.792 
0.00247416 0.000245829 0.00429099 939.293 
0.00273764 0.00047341 0.00405116 941.953 
0.000580337 0.000717954 0.00437781 937.767 
0.00112939 0.000663153 0.00408382 941.294 
0.00163544 0.000865393 0.00442565 937.219 
0.00212006 0.000891452 0.00423052 939.759 
0.00263699 0.000840581 0.00425416 939.611 
0.000422218 0.00122274 0.00431908 938.846 
0.000725116 0.00102354 0.00406524 941.596 
0.00115208 0.00101176 0.00441448 937.342 
0.00163173 0.00142534 0.00411896 940.961 
0.00208921 0.00128414 0.00412545 940.884 
0.00243817 0.00137482 0.0044063 937.505 
0.000333723 0.0018814 0.0041072 941.735 
0.000922403 0.00182285 0.00431262 938.91 
0.0013863 0.00156903 0.00438743 937.722 
0.00199892 0.00177555 0.00421787 939.756 
0.00258723 0.00164721 0.00407423 941.674 
0.000368197 0.00229105 0.00404298 942.581 
0.000811578 0.00218877 0.00408097 941.939 
0.00158288 0.002416 0.00421389 939.851 
0.00215959 0.00218716 0.00435153 938.19 
0.00260298 0.00223071 0.00401356 942.521 
0.00276702 0.00233317 0.00444403 937.1 
0.000462295 0.00279655 0.00441037 938.294 
0.000249524 0.00275603 0.00408672 942.361 
0.000841773 0.00268107 0.0044079 938.005 
0.00114343 0.00255897 0.00403261 942.398 
0.00160128 0.00274122 0.00444267 936.953 
0.00207465 0.00267767 0.00431166 938.68 
0.00264691 0.00266643 0.00423772 939.852 
0.000374499 0.000212274 0.00462372 934.655 
0.000996032 0.000310803 0.00445887 936.716 
0.00131572 0.000359001 0.0048429 932.048 
0.00187549 0.000402551 0.00445766 936.859 
0.00249237 0.000308842 0.00468331 934.648 
0.000267267 0.000958215 0.00481888 932.511 
0.000239939 0.00065209 0.00454408 935.778 
0.000892875 0.000549457 0.00485808 931.875 
0.00117544 0.000641915 0.0044739 936.625 
0.00140232 0.000791678 0.00483492 932.224 
0.00176484 0.000693683 0.004825 932.329 
0.00243172 0.000849152 0.00461181 935.183 
0.000488446 0.00131557 0.004743 933.763 
0.000928423 0.00100445 0.00475053 933.285 
0.0020885 0.00143748 0.00473623 933.306 
0.00201833 0.0010405 0.00474519 933.288 
0.00270627 0.00121525 0.00461603 934.941 
0.00061931 0.00174681 0.00466056 934.836 
0.00132046 0.00194423 0.00456107 935.644 
0.00161889 0.0016606 0.00468427 933.938 
0.00221811 0.00174967 0.00456794 935.42 
0.00278215 0.00157153 0.00445593 936.848 
0.00267399 0.0017461 0.00479841 932.437 
0.000270915 0.00226106 0.0044702 937.542 
0.000571338 0.00248062 0.00469864 934.597 
0.000620936 0.00207382 0.00446237 937.276 
0.000974181 0.00205722 0.00468929 934.225 
0.00121696 0.00236673 0.00466572 934.256 
0.00172869 0.00213272 0.00451408 936.039 
0.0023927 0.00207382 0.0047111 933.541 
0.0012807 0.00275157 0.00475231 933.076 
0.00229634 0.00263805 0.00471636 933.586 
0.000439835 0.000307417 0.00508126 928.954 
0.00275601 0.000278501 0.00514752 928.509 
0.000304396 0.000983923 0.00523927 927.165 
0.000875047 0.000919485 0.00523722 927.087 
0.00173949 0.00057213 0.00529973 926.324 
0.00221021 0.000955005 0.00512521 928.487 
0.00210255 0.000503942 0.0050179 930.002 
0.00262324 0.000756337 0.00508386 929.137 
0.000735493 0.00143034 0.00510027 929.079 
0.00126169 0.00129629 0.00494965 930.743 
0.00180647 0.00133538 0.00517881 927.793 
0.00225004 0.00149264 0.00514709 927.953 
0.00271431 0.00134038 0.00498351 930.212 
0.000368336 0.00163008 0.00519359 928.085 
0.000766222 0.00189586 0.00503389 929.912 
0.00146342 0.00177699 0.00526655 926.667 
0.001799 0.00175057 0.00506197 929.132 
0.00275647 0.00197958 0.00514547 927.807 
0.000264654 0.00204169 0.00507148 929.529 
0.000429967 0.00245438 0.00520122 927.578 
0.00093475 0.00235121 0.00514871 928.226 
0.001321 0.00209132 0.00491419 931.163 
0.00167729 0.00213255 0.00503831 929.445 
0.00184224 0.00248579 0.00498229 930.05 
0.00239431 0.00214415 0.00509091 928.466 
0.000544403 0.00278031 0.00492697 931.339 
0.000689161 0.00272106 0.0053006 926.073 
0.0011811 0.00280816 0.00528537 926.324 
0.00154023 0.00263466 0.00530697 925.922 
0.00221941 0.00263288 0.00523085 926.45 
0.00278827 0.00252007 0.00504953 928.972 
0.000424317 0.000499305 0.00540709 924.701 
0.000696509 0.000231025 0.00553068 923.079 
0.00104815 0.000205141 0.00534277 925.608 
0.00161595 0.000219422 0.00547511 923.918 
0.00245346 0.000279042 0.00568903 921.071 
0.0021177 0.000212816 0.00537529 925.315 
0.000699219 0.000770445 0.00574717 920.275 
0.00112744 0.000896462 0.00552535 923.321 
0.0013152 0.000538933 0.00565605 921.619 
0.00195281 0.000931627 0.00573944 920.183 
0.00257932 0.000603547 0.00546664 924.204 
0.000414718 0.00116367 0.00556658 923.058 
0.00107731 0.00127827 0.00533847 925.772 
0.00154157 0.00117367 0.00560909 922.072 
0.00224289 0.00123739 0.00554237 922.685 
0.00279105 0.00118134 0.00540713 924.533 
0.00042992 0.00166168 0.00562516 922.476 
0.000773722 0.00193817 0.00542678 924.756 
0.00128509 0.00154244 0.00551727 923.426 
0.00137935 0.00181322 0.00577538 919.871 
0.00171866 0.00156083 0.00574746 920.169 
0.00185559 0.00183661 0.0054919 923.47 
0.00265649 0.00161848 0.00542133 924.152 
0.000829971 0.00231444 0.00551651 923.287 
0.00131191 0.00228731 0.00542599 924.48 
0.00172942 0.0023837 0.00551754 923.08 
0.00220617 0.00204687 0.00547816 923.409 
0.00254211 0.00228107 0.00577471 919.144 
0.00264796 0.00230391 0.00533603 924.948 
0.00141813 0.00257844 0.00574558 920.116 
0.00250394 0.00276354 0.00546477 923.25 
0.00275026 0.00260057 0.00575702 919.275 
0.000199218 0.000258873 0.00588971 918.407 
0.000695081 0.000226032 0.00610024 915.598 
0.00106066 0.000439514 0.00604205 916.308 
0.00162631 0.00040524 0.0058369 918.997 
0.00155419 0.000213537 0.00616502 914.434 
0.00205077 0.000234776 0.00586118 918.567 
0.00026958 0.000835063 0.00599557 917.122 
0.00154494 0.000807929 0.00578451 919.752 
0.00199153 0.000662636 0.0061798 914.045 
0.00251543 0.000819353 0.00581789 919.17 
0.00272872 0.000527869 0.00592332 917.577 
0.000250865 0.00128863 0.00619252 914.475 
0.000849008 0.00128202 0.00577917 920.125 
0.000665319 0.00102052 0.00608583 915.819 
0.0011214 0.00132718 0.00604828 916.174 
0.00214293 0.00126149 0.00599727 916.536 
0.00252741 0.00121544 0.00586384 918.267 
0.000472955 0.00195745 0.00613378 915.082 
0.000416707 0.00159689 0.00601965 916.739 
0.000986839 0.00179752 0.00595114 917.557 
0.00159748 0.00178913 0.0060956 915.27 
0.00190628 0.00189141 0.00588121 918.188 
0.00228916 0.00198208 0.00600303 916.368 
0.00208083 0.00157993 0.00620435 913.695 
0.00251441 0.00175129 0.00580834 918.958 
0.000196466 0.00200797 0.00588134 918.609 
0.000901906 0.00233247 0.00593193 917.714 
0.00190328 0.00248045 0.00593602 917.373 
0.00198555 0.00215987 0.00615251 914.448 
0.000484062 0.00262289 0.00579864 919.434 
0.00035305 0.00270696 0.00615248 914.636 
0.00104384 0.00279942 0.00601404 916.548 
0.00236489 0.00274141 0.00584027 918.344 
0.000244388 0.000422201 0.00623964 913.818 
0.00120577 0.000425774 0.00656328 908.927 
0.00173822 0.000337954 0.00661838 907.896 
0.00204862 0.000195332 0.00625693 912.89 
0.00229924 0.000341702 0.0066255 907.193 
0.00251113 0.000480927 0.00623518 912.855 
0.00104623 0.000992321 0.00631275 912.515 
0.00137895 0.000943238 0.00663917 907.719 
0.00158902 0.000679952 0.00638041 911.39 
0.00232801 0.000850773 0.00623257 913.04 
0.00277853 0.000718329 0.00640823 910.382 
0.000457754 0.00147391 0.00662075 908.437 
0.000676055 0.00145516 0.00630937 912.785 
0.000528417 0.00109942 0.00653795 909.465 
0.00167028 0.00131915 0.00666369 907.09 
0.00156657 0.00127238 0.00629682 912.409 
0.00213686 0.00120063 0.0063868 911.115 
0.00256455 0.00142572 0.00665528 907.29 
0.0026304 0.00105497 0.00632523 911.91 
0.000796032 0.00191819 0.00641054 911.133 
0.00123531 0.00182358 0.0063926 911.187 
0.00151858 0.00183162 0.00666581 907.284 
0.00220525 0.00164223 0.00662214 907.867 
0.0026199 0.00160849 0.00627557 912.572 
0.000324639 0.00220521 0.00645337 910.503 
0.00111145 0.00220824 0.00634054 912.119 
0.00165087 0.00222841 0.00634413 912.007 
0.00226632 0.0020874 0.00651745 909.376 
0.00277451 0.00213649 0.00637401 911.269 
0.000261485 0.00278354 0.00652871 909.339 
0.00079662 0.00279604 0.00640602 911.1 
0.001396 0.00251347 0.00624356 913.475 
0.00179281 0.00278069 0.00659268 908.596 
0.00224797 0.00259808 0.00645535 910.243 
0.00264405 0.00256952 0.00631901 911.954 
0.000640289 0.000329922 0.00667608 907.729 
0.000772011 0.00018927 0.00705596 902.233 
0.0011781 0.000336886 0.00692862 903.757 
0.00163167 0.000488073 0.00697966 902.745 
0.00247292 0.000287086 0.00700549 902.047 
0.000307759 0.000506634 0.00669407 907.571 
0.0009459 0.000744214 0.00667316 907.401 
0.000545531 0.000744037 0.0068953 904.437 
0.00130557 0.000776169 0.00710671 900.886 
0.00173434 0.000979655 0.00704717 901.624 
0.00201509 0.000684418 0.00680144 905.091 
0.00267553 0.000569645 0.00678571 904.983 
0.00019445 0.00112923 0.00683767 905.327 
0.00105821 0.00133147 0.00677597 905.794 
0.00206779 0.00142911 0.00706581 901.442 
0.00229607 0.00107568 0.00677954 905.437 
0.00274945 0.00106748 0.00707362 901.202 
0.00260864 0.0014234 0.00705602 901.632 
0.000334614 0.00186071 0.00682257 905.256 
0.000889015 0.00166954 0.00693554 903.545 
0.00144931 0.00157244 0.00699154 902.693 
0.00258582 0.00195104 0.00697434 903.007 
0.000629152 0.00216344 0.00668323 907.156 
0.000612901 0.00202868 0.00707978 901.363 
0.00145471 0.00226108 0.0068945 904.172 
0.00112056 0.00218665 0.00708254 901.336 
0.00111126 0.00202957 0.00673309 906.416 
0.00201643 0.00212685 0.0068051 905.362 
0.00265315 0.00248956 0.00700219 902.763 
0.000365891 0.00252312 0.00694228 903.439 
0.000801973 0.00276427 0.0068299 905.101 
0.00119894 0.00253543 0.00675811 906.198 
0.00228492 0.00258738 0.00701746 902.547 
0.00019761 0.000236933 0.00749752 896.144 
0.000846804 0.000242645 0.00754848 894.999 
0.00120737 0.000243893 0.00736469 897.155 
0.00169468 0.00041882 0.00739469 896.327 
0.00243115 0.000326002 0.00744364 895.822 
0.00280332 0.000331712 0.0071875 899.42 
0.000395429 0.000966805 0.00726837 898.979 
0.000207272 0.000628374 0.00716317 900.955 
0.00061317 0.000554656 0.00734516 898.424 
0.00187712 0.00075975 0.00741139 896.222 
0.00227195 0.000740115 0.00743887 895.924 
0.000887196 0.00109871 0.00717904 899.878 
0.000621436 0.00147838 0.00716449 900.061 
0.00141948 0.00123437 0.0072114 899.173 
0.0023266 0.00121759 0.0074504 895.877 
0.000293728 0.00168543 0.0072871 898.057 
0.000848857 0.00174505 0.00735748 897.144 
0.00121334 0.00165688 0.00738195 896.699 
0.00181988 0.00173827 0.0072234 899.078 
0.00220152 0.00189035 0.00724817 899.034 
0.000291798 0.00224484 0.00729542 898.23 
0.00112931 0.0022452 0.00748179 895.498 
0.00169638 0.00201405 0.00746904 895.836 
0.00272274 0.00204421 0.00733121 898.044 
0.000745028 0.00269037 0.00738852 896.903 
0.00114183 0.00269805 0.00736344 897.311 
0.00183206 0.00251509 0.00716089 900.342 
0.00247323 0.00264629 0.00753138 895.658 
0.0020743 0.00277641 0.00752747 895.313 
0.00068991 0.000317081 0.00789075 889.747 
0.00178624 0.000285845 0.00794311 888.398 
0.000260302 0.000900588 0.00784151 890.458 
0.000618368 0.000915579 0.00760309 894.023 
0.00104996 0.000688888 0.00762614 893.371 
0.00149746 0.000886488 0.00798979 887.832 
0.00154192 0.000986978 0.00758219 893.987 
0.00221 0.000502895 0.00773616 891.533 
0.00269641 0.000545913 0.00776908 891.108 
0.00030691 0.00123455 0.00760379 893.52 
0.000750479 0.00129489 0.00781228 890.335 
0.00113871 0.00129132 0.0079169 888.875 
0.00184038 0.00133005 0.00783822 890.003 
0.00210133 0.00105427 0.00777885 890.983 
0.00247261 0.00109604 0.00795236 888.486 
0.00272965 0.0011669 0.00761411 893.513 
0.000226615 0.00172078 0.00774769 891.215 
0.000872235 0.00165992 0.00796128 888.267 
0.000607 0.0018418 0.00775921 891.155 
0.00137221 0.00177826 0.00792123 888.917 
0.00194589 0.00162885 0.00755984 894.342 
0.00153053 0.00154282 0.00756616 893.736 
0.00243855 0.00164938 0.00757637 894.236 
0.000262874 0.0021299 0.00799849 887.654 
0.000439783 0.00243388 0.0078131 890.511 
0.000775521 0.00217773 0.00785022 889.971 
0.00118589 0.00231464 0.00796739 888.324 
0.00188632 0.00237568 0.00758332 894.229 
0.00215977 0.00223771 0.00792478 889.383 
0.00267598 0.00221522 0.00767703 893.304 
0.000292364 0.00276677 0.00766429 892.739 
0.000815895 0.00275553 0.00776347 891.347 
0.00129998 0.00279266 0.00798604 888.161 
0.00158182 0.00258899 0.00765507 893.084 
0.00280685 0.00279551 0.00763218 894.091 
0.000293104 0.000196777 0.00818044 885.043 
0.000838427 0.000442568 0.00825161 883.78 
0.00126735 0.000277991 0.00802082 887.424 
0.0020813 0.0003842 0.00837388 881.906 
0.00249362 0.000244434 0.00804363 886.91 
0.000297231 0.000561269 0.00834596 882.256 
0.000697269 0.000998588 0.00842244 881.397 
0.000759918 0.000947891 0.00802234 887.371 
0.00110316 0.00074387 0.00810825 886.04 
0.00186248 0.000622135 0.00812204 885.755 
0.00259342 0.000616782 0.00834369 882.368 
0.00045025 0.00134755 0.00812224 885.953 
0.000960575 0.00138414 0.0083513 882.458 
0.00160744 0.00124652 0.00814767 885.637 
0.00241407 0.00135451 0.00822326 884.64 
0.00273321 0.00113532 0.00826164 883.911 
0.000945791 0.00190981 0.00835616 882.404 
0.0016587 0.00172435 0.00816259 885.592 
0.00216687 0.00164689 0.00824558 884.346 
0.00249656 0.0017572 0.00842711 881.672 
0.00280589 0.00153426 0.00828291 883.834 
0.000209695 0.00233678 0.0083354 882.412 
0.000970988 0.00239051 0.00836549 882.124 
0.00159946 0.00217417 0.00823784 884.475 
0.0022549 0.00203708 0.00827988 883.841 
0.00257763 0.00220094 0.00811257 886.543 
0.000427308 0.00276892 0.00820259 884.552 
0.000794996 0.00250296 0.00804628 887.035 
0.00135816 0.00256918 0.00842905 881.614 
0.00195809 0.00269449 0.00842397 881.695 
0.00167999 0.00257686 0.00806321 887.177 
0.00236381 0.00263005 0.0081984 885.283 
0.0026662 0.00281087 0.00805832 887.537 
0.00019511 0.000218557 0.00856901 878.748 
0.000876258 0.000265682 0.00873562 876.222 
0.00156937 0.000432754 0.00862966 877.918 
0.00231851 0.000266752 0.00866425 877.298 
0.00264177 0.000243189 0.0084727 880.235 
0.000996951 0.000760831 0.00856578 879.189 
0.00137787 0.00091666 0.00865636 877.721 
0.00126879 0.000588941 0.0088296 874.913 
0.00228535 0.0008524 0.00861938 878.186 
0.00267999 0.000557524 0.00874096 876.103 
0.00272196 0.000957358 0.00879184 875.413 
0.000461675 0.00137718 0.00866397 877.664 
0.000201943 0.00106178 0.00844737 881.004 
0.00141949 0.00128847 0.00847268 880.809 
0.0019439 0.0011546 0.00854571 879.507 
0.00265362 0.00135344 0.0086606 877.924 
0.000368523 0.00176273 0.00851974 879.858 
0.00059771 0.00170383 0.00884495 874.881 
0.000657717 0.00224503 0.00856405 879.062 
0.00134367 0.00201227 0.00865938 877.858 
0.00133387 0.00237355 0.00883664 875.219 
0.00166712 0.00226985 0.00869342 877.577 
0.00196787 0.00200335 0.008759 876.458 
0.0023131 0.00227467 0.00887381 874.703 
0.00252462 0.0022279 0.00852416 880.146 
0.00059241 0.00264291 0.00871602 876.556 
0.00247466 0.00265022 0.00857781 879.391 
0.000302938 0.000484342 0.00893869 872.973 
0.000709896 0.000214456 0.00912357 869.955 
0.00140247 0.000368322 0.00923385 868.548 
0.00186389 0.000386349 0.00915213 869.799 
0.00275208 0.000229095 0.00928043 867.052 
0.000272262 0.000907202 0.00891086 873.606 
0.000818092 0.000664803 0.00897647 872.617 
0.00094466 0.000894531 0.00924818 868.354 
0.00173414 0.00077208 0.00897938 872.626 
0.00245975 0.000953434 0.00913443 869.983 
0.000347787 0.00124992 0.00906176 871.45 
0.000717089 0.00112247 0.00900001 872.412 
0.00129453 0.00113139 0.00902561 872.116 
0.0017324 0.00148964 0.00931461 867.935 
0.00205868 0.0012999 0.00897954 872.807 
0.0027534 0.00138736 0.0092471 868.219 
0.000362994 0.00183682 0.00916165 870.041 
0.0009356 0.00162101 0.00905569 871.697 
0.000618406 0.0015439 0.00925806 868.683 
0.00115035 0.00199853 0.00899528 872.639 
0.00197161 0.0018461 0.00915778 870.082 
0.00160391 0.00188215 0.00895365 873.368 
0.00220454 0.0016576 0.00891206 874.009 
0.00247942 0.0016419 0.00930899 867.352 
0.00269934 0.00173382 0.00901583 872.265 
0.000358919 0.00235892 0.0089645 872.801 
0.000786951 0.0022802 0.00899634 872.443 
0.00181545 0.00222558 0.00913402 870.388 
0.00257816 0.00211652 0.00921387 869.132 
0.000266658 0.00271931 0.00906128 871.007 
0.000914606 0.00278553 0.00904647 871.434 
0.00128355 0.00269342 0.00915997 869.717 
0.0018244 0.00265897 0.00910511 870.837 
0.00252697 0.00281212 0.00911047 870.872 
0.00280559 0.0025367 0.00928803 867.957 
0.000721691 0.000465961 0.00941944 865.149 
0.00110402 0.000200003 0.00969296 860.967 
0.00254147 0.000419912 0.00972788 859.695 
0.000295645 0.00091274 0.00949342 864.185 
0.000557492 0.000774764 0.00975082 859.799 
0.000897002 0.000917026 0.0096526 861.672 
0.00143587 0.000728173 0.00936937 866.508 
0.00194975 0.000510409 0.00963529 861.772 
0.00161633 0.000702473 0.00975635 860.009 
0.0024956 0.000562885 0.00936252 865.758 
0.00278727 0.00070872 0.0097235 859.753 
0.000338341 0.00149786 0.00969313 861.527 
0.000489151 0.00115246 0.00973782 860.543 
0.00131666 0.00107446 0.00964371 862.033 
0.00167937 0.00114711 0.00952276 864.145 
0.00213613 0.00100966 0.00959507 862.498 
0.00207511 0.00137344 0.00975881 859.766 
0.00218595 0.00131132 0.00933928 866.786 
0.00252671 0.00148786 0.00966784 861.248 
0.0026113 0.00111837 0.00951074 863.748 
0.000197894 0.00199889 0.00948907 864.312 
0.000917208 0.00150964 0.0097504 860.182 
0.000636815 0.00194142 0.00958383 862.849 
0.00100149 0.00196819 0.0093446 866.848 
0.00109589 0.00157104 0.00941887 865.795 
0.00143111 0.00172722 0.00948967 865.028 
0.00181649 0.00166993 0.00963543 862.328 
0.00213369 0.00186467 0.00951942 863.892 
0.000480469 0.00224986 0.00933705 866.579 
0.000355707 0.00237071 0.00970203 860.406 
0.000884597 0.00242675 0.00938366 865.917 
0.0014099 0.00212402 0.00947244 864.651 
0.00170622 0.00236963 0.00952672 863.705 
0.0019586 0.00219846 0.00974599 860.025 
0.00237523 0.00242996 0.00942576 865.714 
0.0027986 0.00214776 0.00971608 860.633 
0.000524766 0.00274769 0.00965314 861.094 
0.00139547 0.00268129 0.00958673 862.55 
0.00101367 0.00278143 0.00958428 862.501 
0.00183154 0.00267469 0.00973954 860.044 