# Probe 0 (0.0015 0.0015 0)
# Probe 1 (0.0015 0.0015 0.002)
# Probe 2 (0.0015 0.0015 0.004)
# Probe 3 (0.0015 0.0015 0.006)
# Probe 4 (0.0015 0.0015 0.008)
# Probe 5 (0.0015 0.0015 0.01)
# Probe 6 (0.0015 0.0015 0.012)
# Probe 7 (0.0015 0.0015 0.014)
# Probe 8 (0.0015 0.0015 0.016)
# Probe 9 (0.0015 0.0015 0.018)
# Probe 10 (0.0015 0.0015 0.02)
# Time        0             1             2             3             4             5             6             7             8             9             10           
50            167788        99735.5       68235.4       56644.3       52653         51258.8       50562.8       49614.4       47290.7       41309.9       27182.8      
100           184192        125977        85824.5       65225.3       56103         52213.3       50181.4       48124.4       44476.7       37324.2       24497.1      
150           191892        142045        101579        75646         61577.7       54507.5       50548.2       47136.3       42404.5       34748.9       23001.2      
200           196510        152424        113868        85710.6       67911.4       57648.1       51462.5       46550.9       40867.3       32950.6       22034.2      
250           199661        159733        123341        94609.9       74383.5       61352.3       52917.6       46439.8       39837         31696         21377.2      
300           201974        165192        130775        102205        80533.6       65319.1       54814.3       46787.7       39262.5       30854.5       20929.7      
350           203753        169437        136732        108628        86151.3       69311.1       57020.1       47532         39083.7       30342.7       20637.8      
400           205167        172834        141597        114068        91183.2       73171.9       59406.7       48593.7       39239.4       30101.1       20468        
450           206316        175612        145637        118706        95656.6       76818.6       61870         49891.8       39669.6       30081.7       20397.2      
500           207270        177924        149037        122690        99626.2       80215.7       64334.1       51353.1       40317.5       30245.2       20407.6      
550           208071        179876        151934        126141        103155        83356.3       66747.6       52916.7       41132.3       30556.2       20484.3      
600           208755        181544        154428        129153        106301        86249.1       69077.8       54533.7       42069.2       30984.2       20614.6      
650           209343        182986        156598        131801        109119        88909.6       71305.6       56166.1       43090.1       31501.6       20787        
700           209856        184242        158500        134147        111652        91356.3       73420.9       57785.6       44162.9       32084.4       20991.7      
750           210305        185348        160181        136238        113940        93608         75419.8       59371.1       45261.2       32711.8       21219.6      
800           210702        186328        161678        138113        116014        95682.3       77302         60907.6       46363.7       33366         21462.6      
850           211057        187202        163019        139803        117902        97595.6       79070.2       62385.4       47454.2       34031.9       21715.2      
900           211375        187986        164226        141333        119625        99362.1       80727.6       63797.5       48520         34698         21971.7      
950           211662        188693        165317        142724        121202        100995        82278.6       65139.9       49552.1       35355         22228        
1000          211922        189335        166309        143993        122649        102504        83728.1       66410.9       50544         35996.1       22479.9      
1050          212157        189918        167214        145153        123979        103902        85081.1       67609.7       51490.8       36615.3       22724.9      
1100          212372        190450        168041        146218        125204        105195        86342.6       68736.9       52389.4       37208.4       22960.8      
1150          212568        190938        168799        147196        126334        106394        87517.8       69793.8       53238.3       37772.8       23186.4      
1200          212749        191385        169496        148097        127377        107504        88611.4       70782.6       54037         38306.9       23400.6      
1250          212914        191796        170138        148928        128341        108533        89628.4       71705.9       54786.2       38810.1       23603        
1300          213067        192176        170729        149694        129232        109487        90573.3       72566.4       55487         39282.4       23793.4      
1350          213208        192525        171274        150402        130056        110370        91450.6       73367.5       56141.3       39724.7       23972.7      
1400          213338        192848        171778        151056        130819        111189        92264.6       74112.2       56750.7       40137.4       24139.5      
1450          213458        193144        172243        151661        131524        111946        93019.1       74803.4       57317.1       40521.6       24295.2      
1500          213569        193421        172673        152219        132176        112647        93718.2       75444.3       57843         40878.8       24439.8      
1550          213670        193674        173071        152737        132780        113296        94365.4       76038         58330.1       41209.5       24573.2      
1600          213767        193911        173438        153214        133338        113897        94964.6       76588.2       58782.3       41517.3       24698.6      
1650          213852        194126        173779        153657        133854        114452        95519         77097.1       59200.4       41801.7       24813.8      
1700          213935        194330        174093        154065        134331        114966        96031.2       77567.4       59586.9       42064.5       24920.2      
1750          214008        194512        174383        154444        134772        115441        96505         78002.4       59944.3       42307.6       25018.7      
1800          214081        194688        174652        154792        135180        115879        96942.6       78404.4       60274.9       42532.8       25110.6      
1850          214139        194842        174900        155115        135556        116284        97346.8       78775.6       60579.9       42740.2       25195        
1900          214203        194994        175129        155412        135904        116658        97720         79118.1       60861.4       42931.9       25272.5      
1950          214253        195123        175340        155688        136225        117004        98064.4       79434.3       61121.2       43108.7       25344.7      
2000          214308        195254        175537        155942        136522        117323        98382.4       79726         61360.9       43271.6       25410.4      
2050          214351        195364        175716        156176        136795        117616        98675.5       79995         61581.7       43421.8       25471.2      
2100          214397        195476        175884        156392        137047        117888        98946.1       80243.2       61785.6       43560.5       25527.8      
2150          214433        195569        176036        156592        137280        118138        99195.5       80471.9       61973.3       43688.1       25579.4      
2200          214473        195666        176179        156776        137495        118369        99425.4       80682.8       62146.5       43806         25627.3      
2250          214503        195743        176309        156947        137693        118581        99637.3       80877.1       62306         43914.4       25671.4      
2300          214538        195826        176431        157102        137875        118778        99832.7       81056.2       62453         44014.4       25712.1      
2350          214563        195891        176540        157248        138044        118958        100013        81221.2       62588.4       44106.5       25749.5      
2400          214593        195963        176644        157380        138199        119125        100179        81373.1       62713.1       44191.1       25783.6      
2450          214613        196017        176737        157503        138342        119278        100331        81513.1       62827.9       44269.2       25815.5      
2500          214639        196079        176826        157616        138473        119420        100472        81642.1       62933.6       44341.1       25844.2      
2550          214657        196125        176904        157721        138595        119550        100602        81760.9       63031.1       44407.3       25871.6      
2600          214679        196177        176981        157816        138707        119670        100721        81870.2       63120.7       44468.2       25895.9      
2650          214693        196216        177047        157905        138810        119781        100831        81971         63203.3       44524.4       25918.7      
2700          214713        196262        177111        157986        138905        119883        100933        82063.6       63279.4       44575.9       25939.8      
2750          214726        196294        177167        158061        138992        119976        101026        82149         63349.3       44623.3       25959        
2800          214742        196333        177222        158129        139072        120062        101112        82227.5       63413.7       44667.2       25976.9      
2850          214751        196359        177270        158194        139147        120142        101191        82300         63473.1       44707.5       25993.4      
2900          214766        196393        177316        158252        139214        120215        101263        82366.5       63527.6       44744.6       26008.2      
2950          214774        196415        177356        158306        139278        120282        101330        82427.8       63577.9       44778.6       26022        
3000          214787        196444        177396        158355        139335        120344        101392        82484.1       63624         44810         26034.8      
3050          214792        196461        177430        158402        139388        120401        101448        82536.1       63666.5       44839         26046.6      
3100          214803        196486        177464        158444        139437        120454        101501        82583.9       63705.7       44865.5       26057.2      
3150          214809        196502        177492        158482        139483        120502        101549        82627.8       63741.7       44889.9       26067.2      
3200          214818        196523        177521        158518        139524        120547        101593        82668.2       63774.9       44912.4       26076.3      
3250          214822        196535        177545        158551        139562        120587        101633        82705.1       63805.2       44933         26084.6      
3300          214831        196555        177569        158580        139597        120625        101671        82739.5       63833.1       44952         26092.4      
3350          214833        196564        177589        158608        139629        120659        101705        82770.7       63858.9       44969.5       26099.4      
3400          214842        196581        177610        158633        139659        120691        101737        82799.8       63882.6       44985.5       26106        
3450          214843        196588        177627        158657        139686        120720        101766        82826.1       63904.3       45000.3       26111.9      
3500          214851        196603        177644        158678        139711        120747        101792        82850.6       63924.3       45013.8       26117.6      
3550          214852        196609        177659        158698        139733        120771        101817        82872.9       63942.6       45026.5       26122.4      
3600          214858        196621        177673        158716        139755        120794        101839        82893.7       63959.5       45037.8       26127.2      
3650          214858        196626        177686        158733        139774        120815        101860        82912.4       63974.8       45048.2       26131.4      
3700          214865        196637        177697        158747        139792        120834        101879        82929.6       63989         45057.8       26135.4      
3750          214865        196641        177708        158762        139808        120851        101896        82945.6       64002.2       45066.9       26138.9      
3800          214869        196649        177717        158774        139823        120867        101912        82960         64014         45074.9       26142.2      
3850          214869        196653        177728        158786        139836        120882        101927        82973.5       64025         45082.4       26145.2      
3900          214874        196660        177735        158797        139849        120896        101940        82985.9       64035.2       45089.3       26148        
3950          214874        196664        177744        158807        139861        120908        101953        82997.2       64044.5       45095.6       26150.6      
4000          214877        196670        177750        158816        139872        120919        101964        83007.8       64053.1       45101.4       26153        
4050          214877        196673        177757        158825        139881        120930        101974        83017.3       64060.9       45106.7       26155.1      
4100          214881        196677        177762        158833        139890        120940        101984        83026.1       64068.1       45111.6       26157.1      
4150          214880        196680        177769        158839        139899        120949        101993        83034.1       64074.7       45116.1       26158.9      
4200          214883        196684        177773        158846        139906        120957        102001        83041.4       64080.7       45120.1       26160.6      
4250          214883        196687        177778        158852        139913        120964        102008        83048.2       64086.2       45123.9       26162.1      
4300          214885        196689        177782        158857        139919        120971        102015        83054.2       64091.1       45127.3       26163.5      
4350          214886        196692        177786        158863        139926        120978        102022        83060.5       64096.3       45130.8       26164.9      
4400          214887        196694        177790        158867        139931        120983        102027        83065.5       64100.4       45133.5       26166        
4450          214888        196696        177793        158871        139936        120988        102032        83070.3       64104.4       45136.3       26167.1      
4500          214888        196698        177796        158875        139940        120993        102036        83074         64107.3       45138.2       26167.9      
4550          214889        196701        177799        158880        139945        120998        102042        83079.2       64111.6       45141.1       26169        
4600          214890        196701        177801        158882        139948        121001        102045        83081.9       64113.9       45142.8       26169.9      
4650          214890        196702        177802        158883        139949        121003        102047        83083.3       64115         45143.5       26170        
4700          214890        196704        177804        158887        139953        121007        102051        83087.5       64118.4       45145.9       26171        
4750          214891        196705        177807        158889        139957        121011        102055        83090.9       64121.2       45147.8       26171.7      
4800          214891        196706        177808        158891        139958        121013        102057        83092.7       64122.7       45148.7       26172.2      
4850          214891        196706        177808        158891        139958        121013        102057        83092.7       64122.7       45148.7       26172.2      
4900          214891        196706        177808        158891        139958        121013        102057        83092.7       64122.7       45148.7       26172.2      
4950          214891        196706        177808        158891        139958        121013        102057        83092.7       64122.7       45148.7       26172.2      
5000          214891        196706        177808        158891        139958        121013        102057        83092.7       64122.7       45148.7       26172.2      
