# Probe 0 (0.0015 0.0015 0)
# Probe 1 (0.0015 0.0015 0.01)
# Probe 2 (0.0015 0.0015 0.02)
# Probe 3 (0.0015 0.0015 0.03)
# Probe 4 (0.0015 0.0015 0.04)
# Probe 5 (0.0015 0.0015 0.05)
# Probe 6 (0.0015 0.0015 0.06)
# Probe 7 (0.0015 0.0015 0.07)
# Probe 8 (0.0015 0.0015 0.08)
# Probe 9 (0.0015 0.0015 0.09)
# Probe 10 (0.0015 0.0015 0.1)
# Time        0             1             2             3             4             5             6             7             8             9             10           
50            178412        74241.6       69059.2       68946.3       68945         68957.8       68972.8       68973         68971.3       68628.4       34676.6      
100           191787        82265.6       69482.7       68959.7       68946         68958.1       68972.4       68972.9       68962.5       67949         30451.2      
150           198105        91475.3       70370         69003.5       68948.3       68958.3       68972         68972.6       68938.3       67010.6       28010.6      
200           201913        100433        71781.8       69103.7       68953.8       68958.6       68971.5       68971.7       68890.4       65918.7       26390.5      
250           204524        108492        73689.9       69287.2       68966         68959.2       68971.1       68969.6       68812.3       64754.2       25221.1      
300           206455        115522        76012.5       69578.3       68989.6       68960.5       68970.5       68965.5       68700.6       63572.7       24329.4      
350           207959        121606        78639.5       69994         69030.3       68963.4       68970         68958.4       68553.7       62406.8       23622.4      
400           209172        126885        81463.9       70543.9       69094.6       68968.8       68969.3       68947.3       68372.8       61276.8       23043.8      
450           210177        131496        84392.1       71229.7       69188.7       68977.9       68968.6       68931.2       68160.2       60192.5       22559.5      
500           211028        135556        87350.5       72046.5       69318.6       68992.4       68967.7       68909.1       67919.3       59158.8       22146        
550           211761        139159        90285.4       72984.5       69489.1       69014         68966.6       68880.3       67653.5       58176.6       21787.9      
600           212400        142380        93159.9       74030.7       69704.3       69044.6       68965.3       68844         67366.7       57245         21474        
650           212965        145280        95950.2       75170.4       69966.7       69086.2       68963.9       68800         67062.3       56362.2       21195.8      
700           213467        147907        98642.2       76388.2       70278         69140.6       68962.5       68747.9       66743.6       55525.5       20947.1      
750           213919        150301        101229        77669.3       70638.4       69209.8       68961.1       68687.6       66413.5       54732.2       20723        
800           214328        152493        103707        78999.7       71047.3       69295.3       68960.1       68619.2       66074.6       53979.4       20519.8      
850           214700        154509        106077        80366.9       71503.4       69398.5       68959.6       68542.8       65729.2       53264.5       20334.3      
900           215041        156372        108343        81759.7       72004.3       69520.7       68959.9       68458.7       65379.2       52584.8       20164.2      
950           215354        158100        110507        83168.4       72547.6       69662.7       68961.3       68367.4       65026.3       51937.8       20007.4      
1000          215644        159708        112574        84584.8       73130.3       69825.2       68964.4       68269.1       64671.9       51321.2       19862.4      
1050          215913        161209        114549        86001.9       73749         70008.7       68969.3       68164.5       64317.3       50733         19727.6      
1100          216163        162614        116437        87413.9       74400.6       70213.2       68976.6       68054.1       63963.3       50171.1       19601.9      
1150          216397        163934        118242        88816         75081.6       70438.8       68986.7       67938.4       63611         49633.8       19484.5      
1200          216616        165176        119970        90204.5       75788.6       70685.2       69000         67818         63261         49119.4       19374.3      
1250          216822        166348        121624        91576.2       76518.6       70952         69016.8       67693.5       62913.8       48626.4       19270.7      
1300          217016        167455        123210        92928.7       77268.4       71238.5       69037.7       67565.4       62570.1       48153.5       19173        
1350          217199        168505        124732        94260.1       78035.2       71544.2       69062.9       67434.4       62230.2       47699.3       19080.8      
1400          217372        169501        126192        95569.1       78816         71868.1       69092.8       67300.9       61894.3       47262.8       18993.5      
1450          217536        170447        127595        96854.5       79608.5       72209.4       69127.8       67165.6       61563         46842.8       18910.7      
1500          217692        171349        128944        98115.7       80410.3       72567.2       69168         67028.9       61236.2       46438.3       18832        
1550          217840        172209        130242        99352.1       81219.2       72940.5       69213.7       66891.4       60914.3       46048.4       18757.1      
1600          217981        173030        131492        100564        82033.2       73328.3       69265.2       66753.6       60597.3       45672.4       18685.7      
1650          218116        173815        132697        101750        82850.6       73729.4       69322.6       66615.9       60285.4       45309.4       18617.5      
1700          218245        174567        133859        102911        83669.7       74143         69386.1       66478.7       59978.7       44958.8       18552.4      
1750          218368        175288        134981        104048        84489         74568.1       69455.6       66342.5       59677.3       44619.8       18490        
1800          218486        175980        136064        105160        85307.3       75003.5       69531.4       66207.7       59381.1       44291.8       18430.2      
1850          218599        176645        137111        106248        86123.4       75448.3       69613.4       66074.5       59090.3       43974.4       18372.8      
1900          218708        177284        138124        107312        86936.2       75901.7       69701.6       65943.4       58804.8       43666.9       18317.7      
1950          218813        177899        139103        108353        87744.7       76362.6       69796         65814.6       58524.8       43368.9       18264.8      
2000          218913        178493        140052        109370        88548.3       76830.2       69896.6       65688.4       58250.1       43080         18213.8      
2050          219010        179065        140971        110366        89346.1       77303.7       70003.2       65565.1       57980.8       42799.7       18164.6      
2100          219103        179617        141862        111339        90137.5       77782.2       70115.9       65444.9       57716.9       42527.6       18117.3      
2150          219193        180150        142726        112291        90921.9       78265.1       70234.4       65328         57458.3       42263.4       18071.6      
2200          219280        180666        143565        113222        91698.9       78751.5       70358.6       65214.6       57205.1       42006.7       18027.4      
2250          219364        181164        144379        114132        92468         79240.9       70488.4       65104.9       56957.2       41757.2       17984.8      
2300          219446        181647        145170        115023        93228.9       79732.6       70623.7       64998.9       56714.6       41514.6       17943.5      
2350          219524        182115        145938        115894        93981.3       80225.9       70764.2       64896.9       56477.3       41278.7       17903.6      
2400          219600        182568        146685        116747        94725         80720.5       70909.9       64799         56245.2       41049.2       17864.9      
2450          219674        183007        147412        117580        95459.6       81215.6       71060.4       64705.2       56018.4       40825.8       17827.4      
2500          219746        183434        148119        118396        96185.1       81710.9       71215.7       64615.6       55796.7       40608.3       17791.1      
2550          219815        183848        148808        119195        96901.3       82205.9       71375.5       64530.2       55580.1       40396.5       17755.8      
2600          219882        184250        149478        119977        97608.1       82700.1       71539.6       64449.2       55368.6       40190.2       17721.6      
2650          219948        184641        150131        120742        98305.4       83193.3       71707.9       64372.5       55162.1       39989.2       17688.4      
2700          220011        185021        150767        121490        98993.2       83685         71880.1       64300.2       54960.7       39793.4       17656.1      
2750          220073        185391        151388        122224        99671.4       84174.9       72056         64232.3       54764.2       39602.5       17624.7      
2800          220133        185750        151992        122942        100340        84662.7       72235.5       64168.7       54572.6       39416.4       17594.3      
2850          220192        186100        152582        123645        100999        85148.2       72418.4       64109.6       54385.9       39235         17564.6      
2900          220248        186441        153158        124333        101649        85631.1       72604.4       64054.7       54204         39058.2       17535.7      
2950          220304        186774        153720        125008        102289        86111.2       72793.4       64004.2       54026.8       38885.7       17507.6      
3000          220358        187097        154268        125668        102919        86588.2       72985.2       63958.1       53854.4       38717.5       17480.3      
3050          220410        187413        154804        126315        103541        87061.9       73179.7       63916.1       53686.6       38553.4       17453.7      
3100          220461        187721        155327        126950        104153        87532.3       73376.5       63878.4       53523.4       38393.4       17427.7      
3150          220511        188021        155838        127571        104755        87999.1       73575.6       63844.8       53364.8       38237.3       17402.5      
3200          220560        188314        156338        128180        105349        88462.2       73776.8       63815.3       53210.6       38085         17377.8      
3250          220608        188600        156826        128777        105933        88921.5       73980         63789.9       53060.9       37936.5       17353.8      
3300          220654        188879        157303        129363        106509        89376.9       74184.9       63768.5       52915.6       37791.6       17330.4      
3350          220699        189152        157770        129937        107076        89828.3       74391.5       63750.9       52774.5       37650.3       17307.6      
3400          220744        189419        158227        130499        107634        90275.5       74599.5       63737.2       52637.8       37512.4       17285.3      
3450          220787        189679        158673        131051        108183        90718.6       74808.8       63727.3       52505.2       37377.9       17263.6      
3500          220829        189933        159110        131592        108724        91157.5       75019.4       63721.1       52376.9       37246.8       17242.4      
3550          220870        190182        159538        132123        109256        91592.1       75231.2       63718.5       52252.4       37118.8       17221.7      
3600          220911        190425        159956        132643        109780        92022.5       75444.1       63719.4       52132         36993.9       17201.5      
3650          220950        190663        160366        133153        110295        92448.5       75657.9       63723.8       52015.5       36872.1       17181.8      
3700          220988        190895        160767        133654        110803        92870.2       75872.5       63731.7       51902.9       36753.3       17162.6      
3750          221026        191123        161160        134145        111303        93287.2       76087.2       63742.8       51794.4       36637.7       17143.9      
3800          221063        191345        161545        134627        111795        93699.9       76302.7       63757.1       51689.5       36524.8       17125.6      
3850          221099        191563        161922        135100        112279        94108.1       76518.5       63774.6       51588.4       36414.9       17107.7      
3900          221134        191777        162291        135565        112756        94511.9       76734.5       63795.2       51490.9       36307.7       17090.3      
3950          221169        191986        162653        136021        113225        94911.2       76950.7       63818.8       51397.1       36203.3       17073.2      
4000          221203        192190        163008        136468        113687        95306         77167.1       63845.3       51306.8       36101.6       17056.6      
4050          221236        192391        163355        136907        114142        95696.4       77383.4       63874.5       51220.1       36002.6       17040.4      
4100          221268        192587        163696        137339        114590        96082.4       77599.6       63906.6       51136.8       35906.1       17024.6      
4150          221300        192779        164031        137762        115031        96464         77815.7       63941.3       51056.8       35812.2       17009.2      
4200          221331        192968        164358        138179        115465        96841.2       78031.6       63978.6       50980.2       35720.8       16994.1      
4250          221362        193152        164679        138586        115890        97214.5       78248.8       64018.7       50906.4       35631.3       16979.4      
4300          221391        193332        164993        138986        116310        97583.8       78465.6       64061.2       50835.8       35544.4       16965        
4350          221421        193509        165301        139379        116723        97948.7       78681.9       64106.1       50768.5       35459.9       16951        
4400          221449        193682        165604        139765        117130        98309.2       78897.7       64153.4       50704.3       35377.8       16937.3      
4450          221477        193852        165900        140144        117531        98665.4       79112.8       64202.9       50643.2       35297.9       16924        
4500          221505        194019        166192        140517        117926        99017.4       79327.3       64254.6       50585.1       35220.3       16911        
4550          221532        194183        166478        140883        118315        99365.2       79541.1       64308.4       50529.9       35145         16898.3      
4600          221558        194343        166758        141243        118698        99708.7       79754.1       64364.2       50477.7       35071.8       16885.9      
4650          221584        194501        167034        141597        119075        100048        79966.3       64421.9       50428.3       35000.8       16873.9      
4700          221610        194655        167305        141945        119446        100383        80177.7       64481.5       50381.7       34931.9       16862.2      
4750          221635        194807        167570        142287        119812        100715        80388.2       64543         50337.8       34865.1       16850.7      
4800          221659        194956        167831        142624        120173        101042        80597.8       64606.1       50296.6       34800.3       16839.6      
4850          221684        195102        168088        142955        120528        101365        80806.5       64671         50258         34737.6       16828.8      
4900          221707        195246        168339        143280        120877        101685        81014.2       64737.5       50221.9       34676.8       16818.3      
4950          221730        195387        168587        143600        121222        102000        81221         64805.5       50188.4       34617.9       16808        
5000          221753        195525        168830        143914        121561        102312        81426.7       64875         50157.4       34561         16798        
5050          221776        195661        169069        144223        121895        102620        81631.4       64946         50128.7       34505.9       16788.3      
5100          221798        195795        169303        144528        122225        102924        81835.1       65018.4       50102.5       34452.7       16778.9      
5150          221819        195926        169534        144827        122549        103225        82037.7       65092         50078.5       34401.2       16769.7      
5200          221840        196055        169761        145121        122869        103521        82239.2       65167         50056.8       34351.6       16760.8      
5250          221861        196181        169984        145411        123184        103815        82439.6       65243.2       50037.3       34303.7       16752.1      
5300          221882        196306        170203        145696        123495        104104        82638.9       65320.5       50020         34257.5       16743.7      
5350          221902        196428        170418        145977        123801        104391        82837.1       65399         50004.8       34213         16735.6      
5400          221922        196548        170630        146253        124102        104674        83034.1       65478.5       49991.6       34170.2       16727.6      
5450          221941        196666        170838        146524        124399        104953        83229.9       65559.1       49980.5       34129         16720        
5500          221960        196783        171043        146792        124692        105229        83424.6       65640.7       49971.3       34089.4       16712.5      
5550          221979        196897        171244        147055        124981        105502        83618.1       65723.2       49964.1       34051.4       16705.3      
5600          221997        197009        171443        147314        125265        105771        83810.5       65806.6       49958.8       34014.9       16698.3      
5650          222016        197119        171637        147569        125546        106037        84001.8       65890.9       49955.3       33980         16691.6      
5700          222033        197228        171829        147819        125822        106300        84192.2       65976.1       49953.6       33946.5       16685        
5750          222051        197334        172017        148066        126094        106560        84380.9       66061.9       49953.7       33914.5       16678.7      
5800          222068        197439        172203        148309        126363        106817        84568.2       66148.5       49955.5       33884         16672.6      
5850          222085        197542        172385        148549        126628        107070        84754.7       66235.8       49959         33854.9       16666.7      
5900          222102        197644        172564        148784        126889        107321        84940.1       66323.9       49964.1       33827.1       16661        
5950          222118        197743        172741        149016        127146        107569        85124         66412.5       49970.8       33800.8       16655.5      
6000          222134        197841        172915        149245        127400        107814        85306.3       66501.6       49979.1       33775.7       16650.2      
6050          222150        197938        173086        149470        127651        108055        85487.7       66591.4       49988.9       33752         16645.2      
6100          222166        198033        173254        149692        127898        108295        85668.4       66681.9       50000.3       33729.5       16640.2      
6150          222181        198127        173420        149911        128141        108531        85847         66772.5       50013         33708.4       16635.5      
6200          222197        198218        173583        150125        128381        108764        86024.5       66863.7       50027.2       33688.6       16631        
6250          222211        198309        173744        150338        128619        108995        86201.4       66955.6       50042.8       33669.8       16626.7      
6300          222226        198398        173902        150547        128852        109223        86377         67047.9       50059.7       33652.3       16622.5      
6350          222241        198486        174058        150753        129083        109448        86550.9       67140.3       50077.9       33636         16618.6      
6400          222255        198573        174211        150956        129310        109671        86724.1       67233.2       50097.4       33620.9       16614.7      
6450          222269        198658        174362        151156        129535        109891        86895.7       67326.5       50118.2       33606.9       16611.1      
6500          222282        198741        174511        151353        129756        110109        87066.1       67420         50140.1       33594         16607.6      
6550          222296        198824        174658        151547        129975        110324        87235.4       67513.9       50163.3       33582.2       16604.4      
6600          222309        198905        174802        151739        130191        110537        87403.5       67608         50187.6       33571.4       16601.2      
6650          222322        198985        174944        151928        130403        110747        87570.4       67702.3       50213         33561.8       16598.2      
6700          222335        199064        175085        152114        130613        110955        87735.4       67796.5       50239.4       33553.1       16595.4      
6750          222348        199141        175223        152297        130821        111161        87899.9       67891.3       50267         33545.5       16592.8      
6800          222360        199218        175359        152478        131025        111364        88063.2       67986.2       50295.6       33538.8       16590.3      
6850          222373        199293        175493        152657        131228        111565        88225.5       68081.4       50325.3       33533.1       16587.9      
6900          222385        199367        175625        152832        131427        111764        88386.3       68176.5       50355.9       33528.4       16585.7      
6950          222397        199440        175755        153006        131624        111960        88546         68271.8       50387.4       33524.6       16583.6      
7000          222409        199512        175884        153177        131818        112154        88704.9       68367.4       50419.9       33521.7       16581.7      
7050          222420        199583        176010        153346        132010        112346        88861.8       68462.6       50453.2       33519.7       16579.9      
7100          222432        199653        176135        153512        132199        112536        89018.5       68558.5       50487.6       33518.6       16578.2      
7150          222443        199722        176258        153676        132386        112724        89173.2       68653.9       50522.6       33518.3       16576.7      
7200          222454        199790        176379        153838        132571        112910        89327.6       68749.7       50558.6       33518.9       16575.3      
7250          222465        199857        176499        153998        132753        113094        89480.4       68845.3       50595.3       33520.3       16574.1      
7300          222476        199923        176617        154156        132933        113276        89632.5       68941.2       50632.9       33522.5       16572.9      
7350          222487        199988        176733        154311        133111        113456        89783.3       69036.9       50671.1       33525.5       16571.9      
7400          222497        200053        176848        154465        133287        113634        89932.8       69132.6       50710.1       33529.2       16571        
7450          222508        200116        176961        154617        133461        113810        90081.2       69228         50749.8       33533.7       16570.3      
7500          222518        200178        177073        154766        133632        113984        90228.5       69323.5       50790.1       33539         16569.6      
7550          222528        200240        177183        154914        133802        114156        90375.1       69419.2       50831.2       33545         16569.1      
7600          222538        200301        177291        155060        133969        114327        90520.2       69514.5       50872.9       33551.7       16568.6      
7650          222548        200361        177398        155203        134134        114496        90664.5       69609.9       50915.2       33559         16568.3      
7700          222557        200420        177504        155345        134298        114662        90807.3       69704.9       50958.1       33567.1       16568.1      
7750          222567        200478        177608        155486        134459        114828        90949.8       69800.3       51001.7       33575.8       16568        
7800          222576        200535        177711        155623        134618        114990        91090.2       69895         51045.6       33585.1       16568        
7850          222586        200592        177813        155760        134776        115152        91230.8       69990.2       51090.4       33595.1       16568.1      
7900          222595        200648        177913        155895        134932        115312        91369.6       70084.9       51135.6       33605.7       16568.3      
7950          222604        200703        178012        156029        135086        115471        91507.5       70179.4       51181.2       33616.9       16568.6      
8000          222613        200757        178109        156160        135238        115628        91644.6       70273.9       51227.4       33628.7       16569        
8050          222622        200811        178206        156290        135389        115783        91780.8       70368.3       51274.1       33641.1       16569.5      
8100          222630        200864        178301        156418        135537        115936        91915.5       70462.3       51321.1       33654         16570.1      
8150          222639        200917        178395        156545        135684        116088        92049.5       70556.2       51368.7       33667.5       16570.7      
8200          222647        200968        178488        156671        135830        116239        92182.6       70650         51416.6       33681.5       16571.5      
8250          222656        201019        178579        156794        135974        116388        92314.9       70743.7       51465.1       33696         16572.4      
8300          222664        201070        178670        156916        136116        116535        92446         70837         51513.9       33711         16573.3      
8350          222672        201119        178759        157037        136256        116681        92575.8       70930         51562.9       33726.5       16574.3      
8400          222680        201168        178847        157156        136395        116826        92705.1       71022.9       51612.5       33742.5       16575.4      
8450          222688        201217        178934        157274        136533        116969        92833.8       71115.8       51662.4       33759         16576.6      
8500          222696        201265        179020        157391        136668        117111        92960.9       71208.1       51712.6       33775.9       16577.8      
8550          222703        201312        179105        157506        136803        117251        93087.5       71300.5       51763.1       33793.3       16579.1      
8600          222711        201359        179189        157620        136936        117390        93212.9       71392.4       51813.9       33811.1       16580.5      
8650          222719        201405        179272        157732        137067        117528        93337.4       71484         51865         33829.3       16582        
8700          222726        201450        179354        157843        137197        117663        93461.2       71575.5       51916.4       33847.9       16583.6      
8750          222733        201495        179435        157953        137325        117799        93584.1       71666.8       51968.2       33867         16585.1      