# Probe 0 (0.0015 0.0015 0)
# Probe 1 (0.0015 0.0015 0.01)
# Probe 2 (0.0015 0.0015 0.02)
# Probe 3 (0.0015 0.0015 0.03)
# Probe 4 (0.0015 0.0015 0.04)
# Probe 5 (0.0015 0.0015 0.05)
# Probe 6 (0.0015 0.0015 0.06)
# Probe 7 (0.0015 0.0015 0.07)
# Probe 8 (0.0015 0.0015 0.08)
# Probe 9 (0.0015 0.0015 0.09)
# Probe 10 (0.0015 0.0015 0.1)
# Time        0             1             2             3             4             5             6             7             8             9             10           
50            (11.7627 11.7627 -2.58533e+07) (-8.54694 -8.54694 -1.93487e+06) (-0.0361377 -0.0361377 -46060) (0.00767507 0.00767507 -801.454) (0.000779057 0.000779057 187.424) (-0.000663622 -0.000663622 3727.83) (-0.000307004 -0.000306991 94.3662) (-0.000510397 -0.000510411 -2.76696) (-0.0098432 -0.0098432 -911.312) (0.060632 0.060632 -177516) (-15.329 -15.329 -1.3412e+07)
100           (-17.0455 -17.0455 -1.90498e+07) (19.3846 19.3846 -3.90543e+06) (1.68361 1.68361 -185033) (0.0928427 0.0928427 -5629.86) (0.00150636 0.00150636 227.385) (0.00927504 0.00927507 2516.25) (-0.00205889 -0.00205888 214.426) (0.000547506 0.000547493 -32.389) (0.0763113 0.0763113 -5132.47) (4.69847 4.69847 -435814) (24.5352 24.5352 -1.0972e+07)
150           (-133.124 -133.124 -1.56746e+07) (41.4715 41.4715 -5.44429e+06) (7.74681 7.74681 -431566) (0.540182 0.540182 -19683.5) (0.0202343 0.0202343 -189.891) (0.02105 0.02105 1971.94) (-0.00597275 -0.00597275 331.624) (0.00853702 0.00853699 -163.037) (0.619322 0.619322 -15237.6) (16.4803 16.4803 -716767) (-67.6512 -67.6512 -9.46633e+06)
200           (-86.5447 -86.5447 -1.36177e+07) (23.0275 23.0275 -6.38415e+06) (10.7332 10.7332 -766729) (1.0562 1.0562 -48456.4) (0.0606561 0.0606561 -1647.75) (0.0147666 0.0147665 1610.99) (-0.00491644 -0.00491646 426.701) (0.025703 0.025703 -533.104) (1.18469 1.18469 -32867.1) (16.8006 16.8006 -979814) (-48.8786 -48.8786 -8.43023e+06)
250           (61.2641 61.2641 -1.2201e+07) (-13.6007 -13.6007 -6.85798e+06) (-20.7469 -20.7469 -1.15452e+06) (-2.47291 -2.47291 -96031) (-0.166436 -0.166436 -4975.85) (-0.0180119 -0.0180119 1230.37) (0.00249832 0.00249832 488.256) (-0.0814727 -0.0814727 -1339.02) (-2.31823 -2.31823 -58446.9) (-17.5928 -17.5928 -1.20875e+06) (5.22128 5.22128 -7.6654e+06)
300           (51.5153 51.5153 -1.11503e+07) (0.352363 0.352363 -7.04277e+06) (-23.2178 -23.2178 -1.55726e+06) (-3.95755 -3.95755 -164426) (-0.352715 -0.352715 -11185.1) (-0.0270142 -0.0270142 657.439) (-0.00144756 -0.00144758 503.283) (-0.156423 -0.156423 -2807.7) (-3.18805 -3.18805 -91315.1) (-16.9309 -16.9309 -1.40058e+06) (5.46929 5.46929 -7.07324e+06)
350           (65.7021 65.7021 -1.03312e+07) (2.85546 2.85546 -7.06558e+06) (-13.0786 -13.0786 -1.94451e+06) (-2.63389 -2.63389 -253181) (-0.260734 -0.260734 -21291) (-0.0152797 -0.0152797 -309.744) (-0.00603444 -0.00603445 449.985) (-0.167497 -0.167497 -5170.11) (-2.50069 -2.50069 -130258) (-8.11124 -8.11124 -1.55816e+06) (34.9549 34.9549 -6.5988e+06)
400           (6.2548 6.2548 -9.66936e+06) (25.5975 25.5975 -7.0013e+06) (1.71249 1.71249 -2.29668e+06) (1.66404 1.66404 -360085) (0.309751 0.309751 -36218.2) (-0.0675848 -0.0675848 -1918.05) (0.00991361 0.00991358 294.266) (0.0599347 0.0599347 -8624.02) (0.0315867 0.0315867 -173711) (7.34495 7.34495 -1.68617e+06) (9.82422 9.82422 -6.20727e+06)
450           (112.8 112.8 -9.12031e+06) (31.3459 31.3459 -6.89162e+06) (-41.7486 -41.7486 -2.60422e+06) (-17.738 -17.738 -481600) (-3.01504 -3.01504 -56669.4) (-0.735976 -0.735976 -4454.72) (-0.119781 -0.119781 -14.0695) (-1.25077 -1.25077 -13319.6) (-11.7938 -11.7938 -220174) (-27.12 -27.12 -1.78955e+06) (53.399 53.399 -5.87747e+06)
500           (102.586 102.586 -8.65525e+06) (35.6705 35.6705 -6.75967e+06) (-35.5387 -35.5387 -2.86502e+06) (-20.2593 -20.2593 -613597) (-4.14357 -4.14357 -83068.7) (-1.26605 -1.26605 -8212.08) (-0.222625 -0.222625 -538.838) (-1.67824 -1.67824 -19347.3) (-12.7869 -12.7869 -268292) (-23.054 -23.054 -1.87264e+06) (47.5868 47.5868 -5.5947e+06)
550           (92.5408 92.5408 -8.25476e+06) (36.5222 36.5222 -6.61825e+06) (-28.5766 -28.5766 -3.08143e+06) (-21.6105 -21.6105 -751903) (-5.25352 -5.25352 -115548) (-1.99315 -1.99315 -13494.2) (-0.369787 -0.369787 -1358.89) (-2.06909 -2.06909 -26739.6) (-13.0667 -13.0667 -316950) (-19.4253 -19.4253 -1.9392e+06) (42.4819 42.4819 -5.34891e+06)
600           (84.0535 84.0535 -7.90517e+06) (36.1892 36.1892 -6.47454e+06) (-22.1018 -22.1018 -3.25811e+06) (-22.1635 -22.1635 -892680) (-6.34961 -6.34961 -153965) (-2.94901 -2.94901 -20582.1) (-0.575341 -0.57534 -2565.32) (-2.45536 -2.45536 -35477.8) (-13.0916 -13.0916 -365277) (-16.3736 -16.3736 -1.99228e+06) (38.3542 38.3542 -5.13274e+06)
650           (77.0666 77.0666 -7.59652e+06) (35.357 35.357 -6.33256e+06) (-16.4898 -16.4898 -3.40041e+06) (-22.1462 -22.1462 -1.03265e+06) (-7.42326 -7.42326 -197947) (-4.14456 -4.14456 -29719.4) (-0.849426 -0.849426 -4258.3) (-2.84097 -2.84097 -45502) (-12.9978 -12.9978 -412620) (-13.8957 -13.8957 -2.03438e+06) (35.1306 35.1306 -4.94072e+06)
700           (71.4597 71.4597 -7.32141e+06) (34.4504 34.4504 -6.19451e+06) (-11.7768 -11.7768 -3.51363e+06) (-21.7597 -21.7597 -1.16922e+06) (-8.47876 -8.47876 -246944) (-5.56414 -5.56414 -41100.3) (-1.19679 -1.19679 -6543.49) (-3.23458 -3.23458 -56722) (-12.8785 -12.8785 -458512) (-11.899 -11.899 -2.06748e+06) (32.7595 32.7595 -4.76869e+06)
750           (67.1267 67.1267 -7.07417e+06) (33.7721 33.7721 -6.06154e+06) (-7.86194 -7.86194 -3.60255e+06) (-21.1895 -21.1895 -1.30041e+06) (-9.53845 -9.53845 -300286) (-7.15456 -7.15456 -54862) (-1.61316 -1.61316 -9528.21) (-3.65233 -3.65233 -69027.8) (-12.8148 -12.8148 -502634) (-10.2784 -10.2784 -2.09321e+06) (31.2199 31.2199 -4.61341e+06)
800           (63.9132 63.9132 -6.8504e+06) (33.5202 33.5202 -5.93416e+06) (-4.57969 -4.57969 -3.67134e+06) (-20.5766 -20.5766 -1.42487e+06) (-10.632 -10.632 -357238) (-8.82011 -8.82011 -71082.2) (-2.08339 -2.08339 -13317.6) (-4.11424 -4.11424 -82299.6) (-12.8692 -12.8692 -544787) (-8.92347 -8.92347 -2.11287e+06) (30.4666 30.4666 -4.47234e+06)
850           (61.5121 61.5121 -6.6466e+06) (33.733 33.733 -5.81254e+06) (-1.74883 -1.74883 -3.72352e+06) (-19.9783 -19.9783 -1.54174e+06) (-11.771 -11.771 -417037) (-10.4381 -10.4381 -89780.5) (-2.58695 -2.58695 -18011.7) (-4.63538 -4.63538 -96415) (-13.0642 -13.0642 -584862) (-7.72886 -7.72886 -2.12751e+06) (30.3566 30.3566 -4.34343e+06)
900           (59.3993 59.3993 -6.45996e+06) (34.2113 34.2113 -5.69663e+06) (0.775623 0.775623 -3.76202e+06) (-19.3449 -19.3449 -1.65057e+06) (-12.9161 -12.9161 -478938) (-11.893 -11.893 -110924) (-3.10931 -3.10931 -23702.5) (-5.21473 -5.21473 -111255) (-13.3663 -13.3663 -622817) (-6.63264 -6.63264 -2.13798e+06) (30.6121 30.6121 -4.22505e+06)
950           (56.84 56.84 -6.28821e+06) (34.4806 34.4806 -5.58624e+06) (3.05377 3.05377 -3.78926e+06) (-18.5141 -18.5141 -1.75122e+06) (-13.9349 -13.9349 -542232) (-13.0951 -13.0951 -134436) (-3.64236 -3.64236 -30472.7) (-5.82117 -5.82117 -126708) (-13.6769 -13.6769 -658659) (-5.6501 -5.6501 -2.145e+06) (30.8421 30.8421 -4.11583e+06)
1000          (52.9402 52.9402 -6.12947e+06) (33.8004 33.8004 -5.48114e+06) (5.00253 5.00253 -3.80724e+06) (-17.1893 -17.1893 -1.84379e+06) (-14.5273 -14.5273 -606269) (-13.9479 -13.9479 -160199) (-4.15122 -4.15122 -38393.1) (-6.36273 -6.36273 -142672) (-13.7935 -13.7935 -692428) (-4.80437 -4.80437 -2.14912e+06) (30.5879 30.5879 -4.01466e+06)
1050          (46.8723 46.8723 -5.98217e+06) (31.1607 31.1607 -5.38105e+06) (6.29943 6.29943 -3.81759e+06) (-14.9297 -14.9297 -1.92852e+06) (-14.1518 -14.1518 -670466) (-14.2878 -14.2878 -188068) (-4.50929 -4.50929 -47522) (-6.62497 -6.62497 -159057) (-13.3188 -13.3188 -724190) (-3.95532 -3.95532 -2.15084e+06) (29.3759 29.3759 -3.92058e+06)
1100          (57.4509 57.4509 -5.84502e+06) (37.601 37.601 -5.28567e+06) (10.1279 10.1279 -3.82166e+06) (-15.6102 -15.6102 -2.00578e+06) (-17.4073 -17.4073 -734320) (-16.1258 -16.1258 -217908) (-5.62394 -5.62394 -57913.9) (-7.86887 -7.86887 -175786) (-14.6711 -14.6711 -754029) (-3.3264 -3.3264 -2.15053e+06) (32.652 32.652 -3.83282e+06)
1150          (58.8054 58.8054 -5.71687e+06) (38.707 38.707 -5.19474e+06) (12.0819 12.0819 -3.82056e+06) (-14.3168 -14.3168 -2.07599e+06) (-18.1681 -18.1681 -797392) (-16.3758 -16.3758 -249486) (-6.36461 -6.36461 -69585.9) (-8.52573 -8.52573 -192792) (-14.8156 -14.8156 -782035) (-2.4241 -2.4241 -2.14853e+06) (33.3881 33.3881 -3.75069e+06)
1200          (59.9107 59.9107 -5.59681e+06) (39.6393 39.6393 -5.10797e+06) (13.8879 13.8879 -3.81521e+06) (-12.9268 -12.9268 -2.1396e+06) (-18.7323 -18.7323 -859320) (-16.1855 -16.1855 -282624) (-7.13614 -7.13614 -82558.4) (-9.14885 -9.14885 -210018) (-14.8592 -14.8592 -808304) (-1.52518 -1.52518 -2.1451e+06) (33.9745 33.9745 -3.67362e+06)
1250          (60.8324 60.8324 -5.484e+06) (40.41 40.41 -5.02509e+06) (15.4926 15.4926 -3.80635e+06) (-11.4329 -11.4329 -2.1971e+06) (-19.0693 -19.0693 -919812) (-15.6079 -15.6079 -317121) (-7.91834 -7.91834 -96834.9) (-9.72038 -9.72038 -227421) (-14.7854 -14.7854 -832937) (-0.58254 -0.58254 -2.14048e+06) (34.4149 34.4149 -3.60111e+06)
1300          (61.5347 61.5347 -5.37775e+06) (41.0156 41.0156 -4.94586e+06) (16.872 16.872 -3.79461e+06) (-9.87061 -9.87061 -2.24894e+06) (-19.1853 -19.1853 -978633) (-14.6828 -14.6828 -352778) (-8.69596 -8.69596 -112406) (-10.2342 -10.2342 -244963) (-14.6002 -14.6002 -856033) (0.399936 0.399936 -2.13485e+06) (34.705 34.705 -3.53273e+06)
1350          (61.9891 61.9891 -5.27745e+06) (41.4623 41.4623 -4.87005e+06) (18.0187 18.0187 -3.78051e+06) (-8.2822 -8.2822 -2.29559e+06) (-19.1032 -19.1032 -1.03561e+06) (-13.4503 -13.4503 -389399) (-9.45544 -9.45544 -129252) (-10.69 -10.69 -262617) (-14.3173 -14.3173 -877691) (1.40903 1.40903 -2.12839e+06) (34.8454 34.8454 -3.46809e+06)
1400          (62.1856 62.1856 -5.18256e+06) (41.7617 41.7617 -4.79743e+06) (18.9387 18.9387 -3.76448e+06) (-6.70749 -6.70749 -2.33746e+06) (-18.855 -18.855 -1.0906e+06) (-11.9542 -11.9542 -426794) (-10.1867 -10.1867 -147341) (-11.0919 -11.0919 -280362) (-13.9549 -13.9549 -898005) (2.42569 2.42569 -2.12122e+06) (34.8437 34.8437 -3.40687e+06)
1450          (62.1328 62.1328 -5.09261e+06) (41.9274 41.9274 -4.72782e+06) (19.648 19.648 -3.74688e+06) (-5.17879 -5.17879 -2.37496e+06) (-18.4759 -18.4759 -1.14352e+06) (-10.2404 -10.2404 -464783) (-10.8835 -10.8835 -166634) (-11.4475 -11.4475 -298181) (-13.5331 -13.5331 -917068) (3.42854 3.42854 -2.11347e+06) (34.7127 34.7127 -3.34879e+06)
1500          (61.8538 61.8538 -5.00719e+06) (41.9731 41.9731 -4.66102e+06) (20.1689 20.1689 -3.72801e+06) (-3.71915 -3.71915 -2.40848e+06) (-17.9995 -17.9995 -1.19432e+06) (-8.35345 -8.35345 -503196) (-11.5423 -11.5423 -187083) (-11.7653 -11.7653 -316064) (-13.0716 -13.0716 -934969) (4.39747 4.39747 -2.10523e+06) (34.469 34.469 -3.29357e+06)
1550          (61.3794 61.3794 -4.92593e+06) (41.9117 41.9117 -4.59686e+06) (20.526 20.526 -3.70813e+06) (-2.34289 -2.34289 -2.43835e+06) (-17.4552 -17.4552 -1.24298e+06) (-6.33459 -6.33459 -541876) (-12.1617 -12.1617 -208634) (-12.0538 -12.0538 -334004) (-12.5878 -12.5878 -951792) (5.31628 5.31628 -2.09659e+06) (34.1308 34.1308 -3.241e+06)
1600          (60.742 60.742 -4.8485e+06) (41.7551 41.7551 -4.53519e+06) (20.7435 20.7435 -3.68744e+06) (-1.05737 -1.05737 -2.46492e+06) (-16.8668 -16.8668 -1.28949e+06) (-4.22054 -4.22054 -580679) (-12.7405 -12.7405 -231228) (-12.3201 -12.3201 -351996) (-12.0958 -12.0958 -967616) (6.17358 6.17358 -2.08763e+06) (33.7151 33.7151 -3.19086e+06)
1650          (59.9724 59.9724 -4.77462e+06) (41.5143 41.5143 -4.47585e+06) (20.8435 20.8435 -3.66612e+06) (0.134998 0.134998 -2.48847e+06) (-16.2534 -16.2534 -1.33387e+06) (-2.04345 -2.04345 -619470) (-13.2777 -13.2777 -254802) (-12.5695 -12.5695 -370038) (-11.6066 -11.6066 -982519) (6.96262 6.96262 -2.07841e+06) (33.2374 33.2374 -3.14298e+06)
1700          (59.0975 59.0975 -4.70401e+06) (41.1997 41.1997 -4.41871e+06) (20.8455 20.8455 -3.64433e+06) (1.23498 1.23498 -2.50927e+06) (-15.6296 -15.6296 -1.37615e+06) (0.168737 0.168737 -658133) (-13.7724 -13.7724 -279289) (-12.806 -12.806 -388130) (-11.1281 -11.1281 -996570) (7.68041 7.68041 -2.06898e+06) (32.7111 32.7111 -3.09719e+06)
1750          (58.1401 58.1401 -4.63645e+06) (40.8207 40.8207 -4.36364e+06) (20.7663 20.7663 -3.62218e+06) (2.24523 2.24523 -2.52757e+06) (-15.0065 -15.0065 -1.41639e+06) (2.39189 2.39189 -696559) (-14.2233 -14.2233 -304622) (-13.0321 -13.0321 -406271) (-10.6659 -10.6659 -1.00984e+06) (8.32667 8.32667 -2.05939e+06) (32.147 32.147 -3.05335e+06)
1800          (57.1191 57.1191 -4.57173e+06) (40.3861 40.3861 -4.31053e+06) (20.6204 20.6204 -3.5998e+06) (3.16943 3.16943 -2.5436e+06) (-14.3925 -14.3925 -1.45464e+06) (4.60521 4.60521 -734653) (-14.6293 -14.6293 -330730) (-13.2492 -13.2492 -424463) (-10.2237 -10.2237 -1.02239e+06) (8.90302 8.90302 -2.04968e+06) (31.5544 31.5544 -3.01132e+06)
1850          (56.0498 56.0498 -4.50964e+06) (39.9037 39.9037 -4.25927e+06) (20.4198 20.4198 -3.57726e+06) (4.01179 4.01179 -2.55757e+06) (-13.7938 -13.7938 -1.49097e+06) (6.7909 6.7909 -772332) (-14.9892 -14.9892 -357543) (-13.4581 -13.4581 -442706) (-9.80347 -9.80347 -1.03427e+06) (9.41226 9.41226 -2.03988e+06) (30.9406 30.9406 -2.97098e+06)
1900          (54.9452 54.9452 -4.45003e+06) (39.3809 39.3809 -4.20976e+06) (20.1749 20.1749 -3.55464e+06) (4.77664 4.77664 -2.56966e+06) (-13.2148 -13.2148 -1.52544e+06) (8.93386 8.93386 -809524) (-15.3024 -15.3024 -384992) (-13.6587 -13.6587 -461002) (-9.40646 -9.40646 -1.04556e+06) (9.8579 9.8579 -2.03004e+06) (30.3118 30.3118 -2.93222e+06)
1950          (53.8156 53.8156 -4.39272e+06) (38.8243 38.8243 -4.1619e+06) (19.8946 19.8946 -3.53202e+06) (5.46836 5.46836 -2.58004e+06) (-12.6585 -12.6585 -1.55812e+06) (11.0214 11.0214 -846166) (-15.5682 -15.5682 -413007) (-13.8507 -13.8507 -479351) (-9.03297 -9.03297 -1.05629e+06) (10.2438 10.2438 -2.02017e+06) (29.673 29.673 -2.89495e+06)
2000          (52.6698 52.6698 -4.33758e+06) (38.2397 38.2397 -4.11562e+06) (19.5864 19.5864 -3.50943e+06) (6.0912 6.0912 -2.58887e+06) (-12.1269 -12.1269 -1.58909e+06) (13.0432 13.0432 -882204) (-15.7866 -15.7866 -441520) (-14.0334 -14.0334 -497754) (-8.68276 -8.68276 -1.06651e+06) (10.574 10.574 -2.01031e+06) (29.0286 29.0286 -2.85906e+06)
2050          (51.515 51.515 -4.28447e+06) (37.6324 37.6324 -4.07082e+06) (19.2567 19.2567 -3.48694e+06) (6.64928 6.64928 -2.59629e+06) (-11.6209 -11.6209 -1.61843e+06) (14.9906 14.9906 -917594) (-15.958 -15.958 -470467) (-14.2062 -14.2062 -516209) (-8.35525 -8.35525 -1.07628e+06) (10.8526 10.8526 -2.00046e+06) (28.382 28.382 -2.82448e+06)
2100          (50.3572 50.3572 -4.23327e+06) (37.0073 37.0073 -4.02744e+06) (18.911 18.911 -3.46457e+06) (7.14657 7.14657 -2.60242e+06) (-11.141 -11.141 -1.6462e+06) (16.8572 16.8572 -952299) (-16.0831 -16.0831 -499782) (-14.3681 -14.3681 -534717) (-8.04961 -8.04961 -1.08563e+06) (11.0836 11.0836 -1.99066e+06) (27.7362 27.7362 -2.79113e+06)
2150          (49.2017 49.2017 -4.18387e+06) (36.3685 36.3685 -3.9854e+06) (18.554 18.554 -3.44237e+06) (7.58684 7.58684 -2.60739e+06) (-10.687 -10.687 -1.67248e+06) (18.6379 18.6379 -986289) (-16.1629 -16.1629 -529403) (-14.5184 -14.5184 -553274) (-7.76487 -7.76487 -1.0946e+06) (11.2706 11.2706 -1.98091e+06) (27.0936 27.0936 -2.75894e+06)
2200          (48.0528 48.0528 -4.13618e+06) (35.7199 35.7199 -3.94465e+06) (18.1896 18.1896 -3.42035e+06) (7.97375 7.97375 -2.6113e+06) (-10.2581 -10.2581 -1.69734e+06) (20.3293 20.3293 -1.01954e+06) (-16.199 -16.199 -559273) (-14.6564 -14.6564 -571880) (-7.49995 -7.49995 -1.10323e+06) (11.4175 11.4175 -1.97124e+06) (26.4563 26.4563 -2.72785e+06)
2250          (46.9142 46.9142 -4.09009e+06) (35.0648 35.0648 -3.90511e+06) (17.8212 17.8212 -3.39854e+06) (8.31076 8.31076 -2.61425e+06) (-9.85363 -9.85363 -1.72085e+06) (21.929 21.929 -1.05203e+06) (-16.193 -16.193 -589335) (-14.7813 -14.7813 -590530) (-7.25379 -7.25379 -1.11156e+06) (11.5277 11.5277 -1.96164e+06) (25.8262 25.8262 -2.69779e+06)
2300          (45.7888 45.7888 -4.04552e+06) (34.4062 34.4062 -3.86674e+06) (17.4517 17.4517 -3.37696e+06) (8.6012 8.6012 -2.61632e+06) (-9.47239 -9.47239 -1.74308e+06) (23.4359 23.4359 -1.08376e+06) (-16.1469 -16.1469 -619534) (-14.8927 -14.8927 -609221) (-7.02527 -7.02527 -1.11961e+06) (11.6045 11.6045 -1.95215e+06) (25.2045 25.2045 -2.66872e+06)
2350          (44.6795 44.6795 -4.00239e+06) (33.7466 33.7466 -3.82948e+06) (17.0833 17.0833 -3.35562e+06) (8.84827 8.84827 -2.6176e+06) (-9.11318 -9.11318 -1.7641e+06) (24.85 24.85 -1.11471e+06) (-16.063 -16.063 -649820) (-14.9899 -14.9899 -627948) (-6.81332 -6.81332 -1.12741e+06) (11.6508 11.6508 -1.94276e+06) (24.5926 24.5926 -2.64057e+06)
2400          (43.5882 43.5882 -3.96063e+06) (33.0883 33.0883 -3.79328e+06) (16.7181 16.7181 -3.33455e+06) (9.055 9.055 -2.61816e+06) (-8.7747 -8.7747 -1.78396e+06) (26.172 26.172 -1.14487e+06) (-15.9435 -15.9435 -680147) (-15.0729 -15.0729 -646708) (-6.6169 -6.6169 -1.135e+06) (11.6696 11.6696 -1.93348e+06) (23.9914 23.9914 -2.61332e+06)
2450          (42.5167 42.5167 -3.92016e+06) (32.4334 32.4334 -3.7581e+06) (16.3576 16.3576 -3.31374e+06) (9.2243 9.2243 -2.61806e+06) (-8.45563 -8.45563 -1.80272e+06) (27.4031 27.4031 -1.17425e+06) (-15.7909 -15.7909 -710468) (-15.1412 -15.1412 -665493) (-6.435 -6.435 -1.14239e+06) (11.6634 11.6634 -1.92433e+06) (23.4016 23.4016 -2.5869e+06)
2500          (41.4665 41.4665 -3.88093e+06) (31.7834 31.7834 -3.72389e+06) (16.0032 16.0032 -3.29321e+06) (9.35894 9.35894 -2.61737e+06) (-8.15465 -8.15465 -1.82045e+06) (28.5453 28.5453 -1.20285e+06) (-15.6075 -15.6075 -740742) (-15.1949 -15.1949 -684298) (-6.26666 -6.26666 -1.1496e+06) (11.6348 11.6348 -1.91531e+06) (22.8239 22.8239 -2.56128e+06)
2550          (40.4387 40.4387 -3.84287e+06) (31.1398 31.1398 -3.69061e+06) (15.6558 15.6558 -3.27295e+06) (9.46156 9.46156 -2.61614e+06) (-7.87046 -7.87046 -1.8372e+06) (29.6011 29.6011 -1.23068e+06) (-15.396 -15.396 -770930) (-15.2339 -15.2339 -703117) (-6.11095 -6.11095 -1.15667e+06) (11.586 11.586 -1.90642e+06) (22.2587 22.2587 -2.53643e+06)
2600          (39.4341 39.4341 -3.80593e+06) (30.5039 30.5039 -3.65822e+06) (15.3163 15.3163 -3.25299e+06) (9.53464 9.53464 -2.61442e+06) (-7.60182 -7.60182 -1.85302e+06) (30.5732 30.5732 -1.25773e+06) (-15.1588 -15.1588 -800997) (-15.2583 -15.2583 -721943) (-5.96701 -5.96701 -1.1636e+06) (11.5191 11.5191 -1.89768e+06) (21.7063 21.7063 -2.51231e+06)
2650          (38.4534 38.4534 -3.77006e+06) (29.8767 29.8767 -3.62668e+06) (14.9853 14.9853 -3.23332e+06) (9.58058 9.58058 -2.61225e+06) (-7.34757 -7.34757 -1.86796e+06) (31.4646 31.4646 -1.28402e+06) (-14.8982 -14.8982 -830907) (-15.2684 -15.2684 -740768) (-5.834 -5.834 -1.17042e+06) (11.4359 11.4359 -1.88908e+06) (21.1669 21.1669 -2.48888e+06)
2700          (37.4968 37.4968 -3.7352e+06) (29.2591 29.2591 -3.59597e+06) (14.6631 14.6631 -3.21394e+06) (9.6016 9.6016 -2.60969e+06) (-7.10659 -7.10659 -1.88207e+06) (32.2786 32.2786 -1.30956e+06) (-14.6168 -14.6168 -860632) (-15.2644 -15.2644 -759587) (-5.71113 -5.71113 -1.17714e+06) (11.3382 11.3382 -1.88063e+06) (20.6405 20.6405 -2.46612e+06)
2750          (36.5647 36.5647 -3.70132e+06) (28.6517 28.6517 -3.56605e+06) (14.3502 14.3502 -3.19485e+06) (9.59983 9.59983 -2.60677e+06) (-6.87785 -6.87785 -1.89539e+06) (33.0186 33.0186 -1.33437e+06) (-14.3167 -14.3167 -890141) (-15.2467 -15.2467 -778390) (-5.59765 -5.59765 -1.18378e+06) (11.2276 11.2276 -1.87234e+06) (20.1272 20.1272 -2.444e+06)
2800          (35.6572 35.6572 -3.66838e+06) (28.055 28.055 -3.53688e+06) (14.0466 14.0466 -3.17606e+06) (9.57726 9.57726 -2.60351e+06) (-6.6604 -6.6604 -1.90796e+06) (33.6879 33.6879 -1.35844e+06) (-14.0001 -14.0001 -919411) (-15.2156 -15.2156 -797171) (-5.49287 -5.49287 -1.19034e+06) (11.1055 11.1055 -1.8642e+06) (19.6269 19.6269 -2.42249e+06)
2850          (34.774 34.774 -3.63632e+06) (27.4697 27.4697 -3.50845e+06) (13.7525 13.7525 -3.15756e+06) (9.53576 9.53576 -2.59997e+06) (-6.45334 -6.45334 -1.91983e+06) (34.2901 34.2901 -1.38181e+06) (-13.6691 -13.6691 -948416) (-15.1716 -15.1716 -815923) (-5.39611 -5.39611 -1.19684e+06) (10.9732 10.9732 -1.85623e+06) (19.1395 19.1395 -2.40156e+06)
2900          (33.9152 33.9152 -3.60512e+06) (26.8959 26.8959 -3.48072e+06) (13.4678 13.4678 -3.13935e+06) (9.47707 9.47707 -2.59615e+06) (-6.25587 -6.25587 -1.93103e+06) (34.8287 34.8287 -1.40448e+06) (-13.3258 -13.3258 -977137) (-15.1151 -15.1151 -834636) (-5.30673 -5.30673 -1.2033e+06) (10.8319 10.8319 -1.84841e+06) (18.6647 18.6647 -2.3812e+06)
2950          (33.0803 33.0803 -3.57475e+06) (26.3338 26.3338 -3.45367e+06) (13.1924 13.1924 -3.12144e+06) (9.40285 9.40285 -2.5921e+06) (-6.06724 -6.06724 -1.94159e+06) (35.3069 35.3069 -1.42647e+06) (-12.9719 -12.9719 -1.00555e+06) (-15.0467 -15.0467 -853305) (-5.22415 -5.22415 -1.20971e+06) (10.6827 10.6827 -1.84077e+06) (18.2023 18.2023 -2.36138e+06)
3000          (32.269 32.269 -3.54515e+06) (25.7838 25.7838 -3.42727e+06) (12.9262 12.9262 -3.10381e+06) (9.31462 9.31462 -2.58784e+06) (-5.88677 -5.88677 -1.95156e+06) (35.7283 35.7283 -1.44778e+06) (-12.6091 -12.6091 -1.03365e+06) (-14.9669 -14.9669 -871921) (-5.1478 -5.1478 -1.2161e+06) (10.5265 10.5265 -1.83328e+06) (17.752 17.752 -2.34209e+06)
3050          (31.481 31.481 -3.51632e+06) (25.2457 25.2457 -3.4015e+06) (12.6691 12.6691 -3.08647e+06) (9.21382 9.21382 -2.58338e+06) (-5.71385 -5.71385 -1.96096e+06) (36.0961 36.0961 -1.46845e+06) (-12.2392 -12.2392 -1.06141e+06) (-14.8762 -14.8762 -890476) (-5.07715 -5.07715 -1.22246e+06) (10.3642 10.3642 -1.82597e+06) (17.3136 17.3136 -2.32329e+06)
3100          (30.7157 30.7157 -3.48821e+06) (24.7197 24.7197 -3.37634e+06) (12.4208 12.4208 -3.06942e+06) (9.10176 9.10176 -2.57876e+06) (-5.5479 -5.5479 -1.96982e+06) (36.4134 36.4134 -1.48849e+06) (-11.8636 -11.8636 -1.08881e+06) (-14.7753 -14.7753 -908964) (-5.01171 -5.01171 -1.22881e+06) (10.1967 10.1967 -1.81883e+06) (16.8867 16.8867 -2.30499e+06)
3150          (29.9726 29.9726 -3.46081e+06) (24.2058 24.2058 -3.35177e+06) (12.1811 12.1811 -3.05264e+06) (8.97968 8.97968 -2.57398e+06) (-5.38843 -5.38843 -1.97817e+06) (36.6833 36.6833 -1.5079e+06) (-11.4837 -11.4837 -1.11586e+06) (-14.6645 -14.6645 -927377) (-4.95102 -4.95102 -1.23515e+06) (10.0245 10.0245 -1.81185e+06) (16.4711 16.4711 -2.28715e+06)
3200          (29.2513 29.2513 -3.43408e+06) (23.7038 23.7038 -3.32776e+06) (11.9497 11.9497 -3.03615e+06) (8.84873 8.84873 -2.56907e+06) (-5.23495 -5.23495 -1.98604e+06) (36.9088 36.9088 -1.52672e+06) (-11.1007 -11.1007 -1.14253e+06) (-14.5446 -14.5446 -945708) (-4.89464 -4.89464 -1.24148e+06) (9.84849 9.84849 -1.80504e+06) (16.0662 16.0662 -2.26976e+06)
3250          (28.5511 28.5511 -3.40799e+06) (23.2136 23.2136 -3.3043e+06) (11.7263 11.7263 -3.01992e+06) (8.70997 8.70997 -2.56404e+06) (-5.08705 -5.08705 -1.99345e+06) (37.0927 37.0927 -1.54495e+06) (-10.7159 -10.7159 -1.16883e+06) (-14.4161 -14.4161 -963951) (-4.84217 -4.84217 -1.24781e+06) (9.6691 9.6691 -1.79841e+06) (15.6719 15.6719 -2.25281e+06)
3300          (27.8715 27.8715 -3.38254e+06) (22.7352 22.7352 -3.28138e+06) (11.5108 11.5108 -3.00397e+06) (8.56437 8.56437 -2.5589e+06) (-4.94435 -4.94435 -2.00043e+06) (37.2377 37.2377 -1.56261e+06) (-10.3303 -10.3303 -1.19473e+06) (-14.2795 -14.2795 -982098) (-4.79323 -4.79323 -1.25415e+06) (9.48689 9.48689 -1.79194e+06) (15.2878 15.2878 -2.23629e+06)
3350          (27.2119 27.2119 -3.35769e+06) (22.2683 22.2683 -3.25897e+06) (11.3027 11.3027 -2.98829e+06) (8.41284 8.41284 -2.55367e+06) (-4.80649 -4.80649 -2.007e+06) (37.3463 37.3463 -1.57971e+06) (-9.94487 -9.94487 -1.22024e+06) (-14.1353 -14.1353 -1.00014e+06) (-4.74747 -4.74747 -1.2605e+06) (9.30236 9.30236 -1.78565e+06) (14.9135 14.9135 -2.22017e+06)
3400          (26.5717 26.5717 -3.33342e+06) (21.8127 21.8127 -3.23705e+06) (11.1018 11.1018 -2.97286e+06) (8.25622 8.25622 -2.54837e+06) (-4.67317 -4.67317 -2.01317e+06) (37.421 37.421 -1.59628e+06) (-9.56055 -9.56055 -1.24535e+06) (-13.9842 -13.9842 -1.01808e+06) (-4.70457 -4.70457 -1.26685e+06) (9.11593 9.11593 -1.77952e+06) (14.5487 14.5487 -2.20445e+06)
3450          (25.9503 25.9503 -3.30971e+06) (21.3684 21.3684 -3.21562e+06) (10.9078 10.9078 -2.9577e+06) (8.09527 8.09527 -2.54299e+06) (-4.5441 -4.5441 -2.01898e+06) (37.4641 37.4641 -1.61232e+06) (-9.17811 -9.17811 -1.27005e+06) (-13.8266 -13.8266 -1.03591e+06) (-4.66422 -4.66422 -1.27322e+06) (8.92799 8.92799 -1.77357e+06) (14.193 14.193 -2.18912e+06)
3500          (25.3472 25.3472 -3.28655e+06) (20.935 20.935 -3.19466e+06) (10.7204 10.7204 -2.94279e+06) (7.93072 7.93072 -2.53756e+06) (-4.41903 -4.41903 -2.02444e+06) (37.4778 37.4778 -1.62786e+06) (-8.79828 -8.79828 -1.29435e+06) (-13.663 -13.663 -1.05361e+06) (-4.62616 -4.62616 -1.2796e+06) (8.73891 8.73891 -1.76778e+06) (13.8462 13.8462 -2.17416e+06)
3550          (27.6239 27.6239 -3.26392e+06) (35.6752 35.6752 -3.17414e+06) (33.612 33.612 -2.92814e+06) (22.9782 22.9782 -2.53209e+06) (8.34674 8.34674 -2.02957e+06) (14.2837 14.2837 -1.64289e+06) (-19.7729 -19.7729 -1.31827e+06) (-17.3669 -17.3669 -1.07121e+06) (-8.60965 -8.60965 -1.286e+06) (2.9993 2.9993 -1.76215e+06) (9.59584 9.59584 -2.15956e+06)
3600          (37.38 37.38 -3.24183e+06) (37.0126 37.0126 -3.15409e+06) (30.319 30.319 -2.91374e+06) (20.3067 20.3067 -2.52657e+06) (11.1169 11.1169 -2.03437e+06) (7.42066 7.42066 -1.65736e+06) (8.90653 8.90653 -1.3418e+06) (1.39021 1.39021 -1.08869e+06) (-0.069125 -0.0691252 -1.29242e+06) (2.16309 2.16309 -1.7567e+06) (9.82808 9.82808 -2.14531e+06)
3650          (39.5825 39.5825 -3.22022e+06) (58.8815 58.8815 -3.13447e+06) (42.1769 42.1769 -2.89957e+06) (26.9143 26.9143 -2.52101e+06) (9.22529 9.22529 -2.03885e+06) (5.60844 5.60844 -1.67135e+06) (9.90742 9.90742 -1.3649e+06) (5.47037 5.47037 -1.10603e+06) (4.16973 4.16973 -1.29887e+06) (7.22018 7.22018 -1.75141e+06) (10.9075 10.9075 -2.13141e+06)
3700          (36.8225 36.8225 -3.1991e+06) (69.2806 69.2806 -3.11527e+06) (44.3823 44.3823 -2.88565e+06) (25.4567 25.4567 -2.51544e+06) (8.6208 8.6208 -2.04305e+06) (-32.0946 -32.0946 -1.68494e+06) (25.7278 25.7278 -1.38761e+06) (11.5015 11.5015 -1.12325e+06) (10.5569 10.5569 -1.30533e+06) (10.2269 10.2269 -1.74628e+06) (0.106551 0.106551 -2.11783e+06)
3750          (24.1469 24.1469 -3.1784e+06) (26.206 26.206 -3.09643e+06) (13.1767 13.1767 -2.87196e+06) (5.10637 5.10637 -2.50984e+06) (3.553 3.553 -2.04699e+06) (-5.59529 -5.59529 -1.6982e+06) (4.37887 4.37887 -1.40984e+06) (-0.424593 -0.424593 -1.14029e+06) (2.10525 2.10525 -1.3118e+06) (6.66327 6.66327 -1.74132e+06) (7.45777 7.45777 -2.1046e+06)
3800          (-29.2968 -29.2968 -3.15814e+06) (-23.0807 -23.0807 -3.07797e+06) (-8.85092 -8.85092 -2.8585e+06) (6.99979 6.99979 -2.50426e+06) (2.42725 2.42725 -2.05067e+06) (-41.9939 -41.9939 -1.7109e+06) (-7.36486 -7.36486 -1.43168e+06) (2.22102 2.22102 -1.1572e+06) (-2.67453 -2.67453 -1.31829e+06) (-9.50828 -9.50828 -1.7365e+06) (-12.0089 -12.0089 -2.09166e+06)
3850          (16.9301 16.9301 -3.13837e+06) (12.9194 12.9194 -3.05996e+06) (4.39773 4.39773 -2.84527e+06) (-10.2216 -10.2216 -2.49862e+06) (-1.43149 -1.43149 -2.0541e+06) (-7.57811 -7.57811 -1.72332e+06) (5.61091 5.61091 -1.45313e+06) (3.86713 3.86713 -1.17396e+06) (4.72195 4.72195 -1.32482e+06) (6.63933 6.63933 -1.73188e+06) (6.5823 6.5823 -2.07906e+06)
3900          (-19.5414 -19.5414 -3.11898e+06) (-16.2103 -16.2103 -3.04224e+06) (-7.12543 -7.12543 -2.83225e+06) (12.0369 12.0369 -2.49303e+06) (5.09043 5.09043 -2.05731e+06) (-35.1914 -35.1914 -1.73523e+06) (-9.13422 -9.13422 -1.47415e+06) (-4.75964 -4.75964 -1.19055e+06) (-6.45279 -6.45279 -1.33134e+06) (-8.20225 -8.20225 -1.72739e+06) (-9.98442 -9.98442 -2.06674e+06)
3950          (13.1969 13.1969 -3.10004e+06) (11.6119 11.6119 -3.02495e+06) (4.74736 4.74736 -2.81947e+06) (-11.8498 -11.8498 -2.48739e+06) (-3.16629 -3.16629 -2.06028e+06) (-10.2538 -10.2538 -1.74685e+06) (7.85218 7.85218 -1.4948e+06) (8.97077 8.97077 -1.20701e+06) (8.39115 8.39115 -1.33791e+06) (7.18872 7.18872 -1.72309e+06) (6.78054 6.78054 -2.05474e+06)
4000          (-13.2796 -13.2796 -3.08145e+06) (-13.0886 -13.0886 -3.00795e+06) (-6.55455 -6.55455 -2.80687e+06) (10.7033 10.7033 -2.48181e+06) (5.91793 5.91793 -2.06307e+06) (-29.9285 -29.9285 -1.75804e+06) (-9.63466 -9.63466 -1.51501e+06) (-8.09569 -8.09569 -1.22328e+06) (-8.99064 -8.99064 -1.34446e+06) (-8.09114 -8.09114 -1.71891e+06) (-9.5359 -9.5359 -2.04301e+06)
4050          (9.42544 9.42544 -3.06328e+06) (10.0977 10.0977 -2.99134e+06) (4.32348 4.32348 -2.79451e+06) (-11.5108 -11.5108 -2.47619e+06) (-4.2782 -4.2782 -2.06563e+06) (-12.4814 -12.4814 -1.76891e+06) (8.99737 8.99737 -1.53486e+06) (12.0283 12.0283 -1.23941e+06) (11.2218 11.2218 -1.35106e+06) (8.14419 8.14419 -1.71492e+06) (7.68711 7.68711 -2.03158e+06)
4100          (-8.1896 -8.1896 -3.04546e+06) (-10.4511 -10.4511 -2.97501e+06) (-5.38486 -5.38486 -2.78233e+06) (9.10493 9.10493 -2.47064e+06) (6.27042 6.27042 -2.06803e+06) (-25.9371 -25.9371 -1.7794e+06) (-9.44933 -9.44933 -1.55429e+06) (-9.67105 -9.67105 -1.25534e+06) (-10.6157 -10.6157 -1.35764e+06) (-8.50293 -8.50293 -1.71105e+06) (-9.77446 -9.77446 -2.0204e+06)
4150          (5.04313 5.04313 -3.02803e+06) (8.25857 8.25857 -2.95904e+06) (3.31239 3.31239 -2.77038e+06) (-10.543 -10.543 -2.46505e+06) (-4.93123 -4.93123 -2.07023e+06) (-14.6402 -14.6402 -1.78958e+06) (9.00196 9.00196 -1.57336e+06) (13.5965 13.5965 -1.27115e+06) (13.1899 13.1899 -1.36428e+06) (9.1756 9.1756 -1.70736e+06) (8.66715 8.66715 -2.00952e+06)
4200          (-3.55864 -3.55864 -3.01093e+06) (-8.31032 -8.31032 -2.94335e+06) (-4.09661 -4.09661 -2.7586e+06) (7.71712 7.71712 -2.45954e+06) (6.3654 6.3654 -2.07228e+06) (-22.5664 -22.5664 -1.79941e+06) (-8.58803 -8.58803 -1.59202e+06) (-10.2205 -10.2205 -1.28673e+06) (-11.6498 -11.6498 -1.37087e+06) (-9.06786 -9.06786 -1.70379e+06) (-10.1193 -10.1193 -1.99888e+06)