# Probe 0 (0.0015 0.0015 0)
# Probe 1 (0.0015 0.0015 0.01)
# Probe 2 (0.0015 0.0015 0.02)
# Probe 3 (0.0015 0.0015 0.03)
# Probe 4 (0.0015 0.0015 0.04)
# Probe 5 (0.0015 0.0015 0.05)
# Probe 6 (0.0015 0.0015 0.06)
# Probe 7 (0.0015 0.0015 0.07)
# Probe 8 (0.0015 0.0015 0.08)
# Probe 9 (0.0015 0.0015 0.09)
# Probe 10 (0.0015 0.0015 0.1)
# Time        0             1             2             3             4             5             6             7             8             9             10           
50            (-0.00924205 -0.00924205 20313.1) (0.00671538 0.00671538 1520.24) (2.83936e-05 2.83936e-05 36.1896) (-6.03035e-06 -6.03035e-06 0.629707) (-6.12121e-07 -6.12121e-07 -0.14726) (5.2142e-07 5.21413e-07 -2.49623) (1.77735e-07 1.77741e-07 -0.0546338) (2.95499e-07 2.95499e-07 0.00160194) (5.69876e-06 5.69876e-06 0.527608) (-3.51032e-05 -3.51032e-05 102.774) (0.00887482 0.00887482 7764.97)
100           (0.0133928 0.0133928 14967.6) (-0.0152306 -0.0152306 3068.52) (-0.00132282 -0.00132282 145.382) (-7.29471e-05 -7.29471e-05 4.42342) (-1.18356e-06 -1.18356e-06 -0.178658) (-7.28745e-06 -7.28747e-06 -1.69288) (1.19201e-06 1.19201e-06 -0.124143) (-3.16973e-07 -3.16974e-07 0.0187518) (-4.41808e-05 -4.41808e-05 2.97147) (-0.0027202 -0.0027202 252.317) (-0.0142048 -0.0142048 6352.28)
150           (0.104596 0.104596 12315.6) (-0.0325844 -0.0325844 4277.61) (-0.00608672 -0.00608672 339.084) (-0.000424424 -0.000424424 15.4655) (-1.58982e-05 -1.58982e-05 0.149198) (-1.65391e-05 -1.65391e-05 -1.32805) (3.45796e-06 3.45797e-06 -0.191995) (-4.94254e-06 -4.94253e-06 0.0943911) (-0.000358559 -0.000358559 8.82187) (-0.00954136 -0.00954136 414.976) (0.039167 0.039167 5480.57)
200           (0.0679987 0.0679987 10699.5) (-0.0180928 -0.0180928 5016.06) (-0.00843316 -0.00843316 602.424) (-0.000829862 -0.000829862 38.0725) (-4.76579e-05 -4.76579e-05 1.29465) (-1.16022e-05 -1.16022e-05 -1.08464) (2.8464e-06 2.84641e-06 -0.247041) (-1.48809e-05 -1.48809e-05 0.308643) (-0.000685882 -0.000685882 19.0285) (-0.00972676 -0.00972676 567.268) (0.0282985 0.0282985 4880.72)
250           (-0.0481356 -0.0481356 9586.42) (0.0106862 0.0106862 5388.36) (0.016301 0.016301 907.11) (0.00194298 0.00194298 75.4521) (0.00013077 0.00013077 3.90956) (1.4152e-05 1.4152e-05 -0.826768) (-1.44643e-06 -1.44641e-06 -0.282678) (4.7169e-05 4.7169e-05 0.775229) (0.00134215 0.00134215 33.8381) (0.0101854 0.0101854 699.809) (-0.00302289 -0.00302289 4437.92)
300           (-0.0404759 -0.0404759 8760.86) (-0.000276854 -0.000276854 5533.54) (0.0182424 0.0182424 1223.55) (0.00310947 0.00310947 129.191) (0.00027713 0.00027713 8.78823) (2.12252e-05 2.12252e-05 -0.4375) (8.38075e-07 8.38082e-07 -0.291378) (9.05618e-05 9.05618e-05 1.62553) (0.00184573 0.00184573 52.8673) (0.00980225 0.00980225 810.874) (-0.00316647 -0.00316647 4095.08)
350           (-0.0516226 -0.0516226 8117.3) (-0.00224355 -0.00224355 5551.47) (0.0102759 0.0102759 1527.81) (0.00206946 0.00206946 198.926) (0.000204861 0.000204861 16.7285) (1.20054e-05 1.20054e-05 0.220229) (3.49365e-06 3.49367e-06 -0.260521) (9.69733e-05 9.69733e-05 2.99326) (0.00144779 0.00144779 75.4133) (0.00469604 0.00469604 902.106) (-0.0202373 -0.0202373 3820.4)
400           (-0.00491443 -0.00491443 7597.28) (-0.0201121 -0.0201121 5500.97) (-0.00134551 -0.00134551 1804.51) (-0.00130745 -0.00130745 282.921) (-0.000243373 -0.000243373 28.4569) (5.31018e-05 5.31018e-05 1.31389) (-5.73954e-06 -5.73951e-06 -0.170367) (-3.46995e-05 -3.46995e-05 4.99292) (-1.82873e-05 -1.82873e-05 100.571) (-0.00425239 -0.00425239 976.216) (-0.00568778 -0.00568778 3593.73)
450           (-0.0886274 -0.0886274 7165.89) (-0.0246287 -0.0246287 5414.79) (0.0328021 0.0328021 2046.16) (0.0139369 0.0139369 378.396) (0.00236893 0.00236893 44.5255) (0.000578261 0.000578261 3.0382) (6.9348e-05 6.9348e-05 0.00814563) (0.000724138 0.000724138 7.71146) (0.00682807 0.00682807 127.471) (0.0157013 0.0157013 1036.07) (-0.0309156 -0.0309156 3402.79)
500           (-0.0806023 -0.0806023 6800.49) (-0.0280266 -0.0280266 5311.11) (0.0279229 0.0279229 2251.06) (0.0159179 0.0159179 482.107) (0.00325563 0.00325563 65.2675) (0.000994746 0.000994746 5.59118) (0.00012889 0.00012889 0.311963) (0.000971624 0.000971624 11.2012) (0.00740306 0.00740306 155.329) (0.0133472 0.0133472 1084.17) (-0.0275506 -0.0275506 3239.08)
550           (-0.0727099 -0.0727099 6485.82) (-0.0286957 -0.0286957 5200) (0.0224528 0.0224528 2421.1) (0.0169795 0.0169795 590.775) (0.00412772 0.00412772 90.7869) (0.00156603 0.00156603 9.17856) (0.00021409 0.00021409 0.786736) (0.00119791 0.00119791 15.481) (0.00756502 0.00756502 183.499) (0.0112464 0.0112464 1122.71) (-0.0245951 -0.0245951 3096.78)
600           (-0.0660413 -0.0660413 6211.14) (-0.0284341 -0.0284341 5087.09) (0.0173655 0.0173655 2559.92) (0.017414 0.017414 701.384) (0.00498893 0.00498893 120.971) (0.00231705 0.00231705 13.9902) (0.000333096 0.000333096 1.48521) (0.00142154 0.00142154 20.5401) (0.00757945 0.00757945 211.479) (0.00947958 0.00947958 1153.44) (-0.0222053 -0.0222053 2971.63)
650           (-0.0605517 -0.0605517 5968.63) (-0.0277802 -0.0277802 4975.53) (0.0129561 0.0129561 2671.72) (0.0174004 0.0174004 811.363) (0.0058325 0.0058325 155.528) (0.00325641 0.00325641 20.1904) (0.000491779 0.000491779 2.46536) (0.00164479 0.00164479 26.3436) (0.00752515 0.00752515 238.888) (0.00804499 0.00804499 1177.81) (-0.020339 -0.020339 2860.46)
700           (-0.0561463 -0.0561463 5752.48) (-0.0270679 -0.0270679 4867.07) (0.00925309 0.00925309 2760.68) (0.0170967 0.0170967 918.66) (0.00666181 0.00666181 194.025) (0.00437178 0.00437178 27.9099) (0.00069289 0.00069289 3.78839) (0.00187268 0.00187268 32.8394) (0.00745604 0.00745604 265.457) (0.00688896 0.00688896 1196.98) (-0.0189663 -0.0189663 2760.85)
750           (-0.0527419 -0.0527419 5558.22) (-0.0265349 -0.0265349 4762.59) (0.00617717 0.00617717 2830.55) (0.0166487 0.0166487 1021.74) (0.00749442 0.00749442 235.937) (0.00562138 0.00562138 37.2406) (0.000933946 0.000933946 5.5164) (0.00211454 0.00211454 39.964) (0.00741919 0.00741919 291.002) (0.0059507 0.0059507 1211.88) (-0.0180749 -0.0180749 2670.95)
800           (-0.050217 -0.050217 5382.4) (-0.0263371 -0.0263371 4662.5) (0.00359829 0.00359829 2884.6) (0.0161672 0.0161672 1119.53) (0.00835359 0.00835359 280.684) (0.00693002 0.00693002 48.2344) (0.00120619 0.00120619 7.71031) (0.00238196 0.00238196 47.6478) (0.00745066 0.00745066 315.407) (0.00516629 0.00516629 1223.26) (-0.0176388 -0.0176388 2589.28)
850           (-0.0483304 -0.0483304 5222.27) (-0.0265042 -0.0265042 4566.95) (0.00137407 0.00137407 2925.59) (0.015697 0.015697 1211.35) (0.00924854 0.00924854 327.669) (0.00820129 0.00820129 60.9035) (0.00149772 0.00149772 10.4279) (0.00268368 0.00268368 55.8199) (0.00756357 0.00756357 338.609) (0.00447466 0.00447466 1231.73) (-0.0175751 -0.0175751 2514.65)
900           (-0.0466704 -0.0466704 5075.63) (-0.02688 -0.02688 4475.88) (-0.000609412 -0.000609412 2955.84) (0.0151994 0.0151994 1296.86) (0.0101483 0.0101483 376.305) (0.00934437 0.00934437 75.2251) (0.00180015 0.00180015 13.7227) (0.00301909 0.00301909 64.4116) (0.00773847 0.00773847 360.583) (0.00384 0.00384 1237.8) (-0.017723 -0.017723 2446.11)
950           (-0.0446595 -0.0446595 4940.69) (-0.0270916 -0.0270916 4389.14) (-0.00239937 -0.00239937 2977.24) (0.0145466 0.0145466 1375.94) (0.0109487 0.0109487 426.035) (0.0102889 0.0102889 91.1457) (0.00210876 0.00210876 17.6423) (0.0033702 0.0033702 73.358) (0.0079183 0.00791831 381.334) (0.00327115 0.00327115 1241.86) (-0.0178562 -0.0178562 2382.88)
1000          (-0.0415954 -0.0415954 4815.96) (-0.0265572 -0.0265572 4306.56) (-0.00393051 -0.00393051 2991.37) (0.0135057 0.0135057 1448.67) (0.0114142 0.0114142 476.349) (0.0109589 0.0109589 108.586) (0.00240337 0.00240337 22.2279) (0.00368373 0.00368373 82.6005) (0.00798578 0.00798578 400.884) (0.00278151 0.00278151 1244.24) (-0.017709 -0.017709 2324.3)
1050          (-0.0368278 -0.0368278 4700.23) (-0.0244831 -0.0244831 4227.92) (-0.0049495 -0.0049495 2999.5) (0.0117304 0.0117304 1515.25) (0.0111192 0.0111192 526.789) (0.011226 0.011226 127.446) (0.00261068 0.00261068 27.5131) (0.00383556 0.00383556 92.0866) (0.00771097 0.00771097 419.273) (0.00228995 0.00228995 1245.24) (-0.0170073 -0.0170073 2269.84)
1100          (-0.0451395 -0.0451395 4592.46) (-0.0295433 -0.0295433 4152.99) (-0.00795752 -0.00795752 3002.7) (0.012265 0.012265 1575.95) (0.013677 0.013677 576.96) (0.0126701 0.0126701 147.635) (0.00325601 0.00325601 33.5295) (0.00455572 0.00455572 101.772) (0.00849387 0.00849387 436.549) (0.00192583 0.00192583 1245.06) (-0.018904 -0.018904 2219.03)
1150          (-0.0462037 -0.0462037 4491.78) (-0.0304123 -0.0304123 4081.54) (-0.00949281 -0.00949281 3001.84) (0.0112488 0.0112488 1631.11) (0.0142748 0.0142748 626.516) (0.0128666 0.0128666 168.995) (0.00368482 0.00368482 40.2871) (0.00493601 0.00493601 111.618) (0.00857755 0.00857755 452.763) (0.00140344 0.00140344 1243.9) (-0.0193302 -0.0193302 2171.48)
1200          (-0.0470722 -0.0470722 4397.45) (-0.0311448 -0.0311448 4013.36) (-0.0109118 -0.0109118 2997.63) (0.0101567 0.0101567 1681.1) (0.0147181 0.0147181 675.173) (0.0127171 0.0127171 191.404) (0.0041315 0.0041315 47.7976) (0.00529677 0.00529677 121.591) (0.00860283 0.00860283 467.972) (0.000883012 0.000883012 1241.91) (-0.0196697 -0.0196697 2126.86)
1250          (-0.0477963 -0.0477963 4308.81) (-0.0317504 -0.0317504 3948.24) (-0.0121726 -0.0121726 2990.67) (0.00898291 0.00898291 1726.28) (0.0149828 0.0149828 722.702) (0.0122632 0.0122632 214.728) (0.00458436 0.00458436 56.063) (0.00562766 0.00562766 131.666) (0.00856008 0.00856008 482.233) (0.000337264 0.000337264 1239.24) (-0.0199247 -0.0199247 2084.88)
1300          (-0.0483482 -0.0483482 4225.33) (-0.0322262 -0.0322262 3885.99) (-0.0132564 -0.0132564 2981.45) (0.0077554 0.0077554 1767.01) (0.015074 0.015074 768.918) (0.0115364 0.0115364 238.83) (0.00503457 0.00503457 65.0782) (0.00592516 0.00592516 141.823) (0.00845288 0.00845288 495.604) (-0.000231545 -0.000231545 1235.98) (-0.0200926 -0.0200926 2045.29)
1350          (-0.0487052 -0.0487052 4146.53) (-0.0325772 -0.0325772 3826.42) (-0.0141574 -0.0141574 2970.37) (0.00650738 0.00650738 1803.66) (0.0150095 0.0150095 813.681) (0.010568 0.010568 263.579) (0.00547427 0.00547427 74.831) (0.00618901 0.00618901 152.044) (0.00828907 0.00828907 508.143) (-0.000815762 -0.000815762 1232.24) (-0.0201739 -0.0201739 2007.87)
1400          (-0.0488596 -0.0488596 4071.97) (-0.0328124 -0.0328124 3769.37) (-0.0148802 -0.0148802 2957.78) (0.00527012 0.00527012 1836.55) (0.0148145 0.0148145 856.89) (0.00939249 0.00939249 288.845) (0.00589764 0.00589764 85.3038) (0.00642171 0.00642171 162.317) (0.00807923 0.00807923 519.904) (-0.00140436 -0.00140436 1228.09) (-0.0201729 -0.0201729 1972.43)
1450          (-0.0488181 -0.0488181 4001.3) (-0.0329426 -0.0329426 3714.68) (-0.0154375 -0.0154375 2943.95) (0.004069 0.004069 1866.02) (0.0145166 0.0145166 898.473) (0.00804593 0.00804593 314.508) (0.00630103 0.00630103 96.4734) (0.00662755 0.00662755 172.633) (0.00783504 0.00783504 530.941) (-0.00198497 -0.00198497 1223.6) (-0.0200971 -0.0200971 1938.8)
1500          (-0.0485989 -0.0485989 3934.18) (-0.0329785 -0.0329785 3662.19) (-0.0158468 -0.0158468 2929.12) (0.00292216 0.00292216 1892.35) (0.0141423 0.0141423 938.388) (0.00656336 0.00656336 340.453) (0.00668249 0.00668249 108.312) (0.00681159 0.00681159 182.987) (0.00756787 0.00756787 541.305) (-0.00254594 -0.00254594 1218.83) (-0.019956 -0.019956 1906.83)
1550          (-0.0482261 -0.0482261 3870.33) (-0.0329302 -0.0329302 3611.78) (-0.0161274 -0.0161274 2913.5) (0.00184082 0.00184082 1915.83) (0.0137146 0.0137146 976.617) (0.00497713 0.00497713 366.574) (0.00704106 0.00704106 120.789) (0.00697863 0.00697863 193.373) (0.00728777 0.00728777 551.044) (-0.00307788 -0.00307788 1213.83) (-0.0197602 -0.0197602 1876.39)
1600          (-0.0477254 -0.0477254 3809.5) (-0.0328072 -0.0328072 3563.33) (-0.0162983 -0.0162983 2897.24) (0.000830783 0.000830783 1936.7) (0.0132524 0.0132524 1013.16) (0.0033161 0.0033161 392.772) (0.00737615 0.00737615 133.87) (0.00713277 0.00713277 203.79) (0.00700294 0.00700294 560.206) (-0.00357422 -0.00357422 1208.64) (-0.0195195 -0.0195195 1847.36)
1650          (-0.0471207 -0.0471207 3751.45) (-0.0326181 -0.0326181 3516.7) (-0.0163769 -0.0163769 2880.49) (-0.000106068 -0.000106068 1955.2) (0.0127704 0.0127704 1048.03) (0.00160555 0.00160555 418.96) (0.0076872 0.0076872 147.519) (0.00727718 0.00727718 214.235) (0.0067197 0.0067197 568.834) (-0.00403104 -0.00403104 1203.3) (-0.019243 -0.019243 1819.64)
1700          (-0.0464333 -0.0464333 3695.97) (-0.0323709 -0.0323709 3471.81) (-0.0163784 -0.0163784 2863.37) (-0.000970329 -0.000970329 1971.55) (0.0122803 0.0122803 1081.25) (-0.000132578 -0.000132578 445.055) (0.0079736 0.0079736 161.696) (0.00741409 0.00741409 224.71) (0.00644268 0.00644268 576.969) (-0.00444661 -0.00444661 1197.84) (-0.0189382 -0.0189382 1793.14)
1750          (-0.045681 -0.045681 3642.89) (-0.0320731 -0.0320731 3428.54) (-0.0163162 -0.0163162 2845.97) (-0.00176409 -0.00176409 1985.93) (0.0117907 0.0117907 1112.87) (-0.00187932 -0.00187932 470.987) (0.00823466 0.00823466 176.362) (0.00754499 0.00754499 235.213) (0.00617509 0.00617509 584.65) (-0.00482077 -0.00482077 1192.29) (-0.0186117 -0.0186117 1767.75)
1800          (-0.0448788 -0.0448788 3592.03) (-0.0317316 -0.0317316 3386.81) (-0.0162015 -0.0162015 2828.38) (-0.00249024 -0.00249024 1998.52) (0.0113083 0.0113083 1142.92) (-0.00361834 -0.00361834 496.691) (0.00846969 0.00846969 191.477) (0.00767071 0.00767071 245.745) (0.00591903 0.00591903 591.915) (-0.00515445 -0.00515445 1186.67) (-0.0182685 -0.0182685 1743.42)
1850          (-0.0440387 -0.0440387 3543.25) (-0.0313526 -0.0313526 3346.53) (-0.0160439 -0.0160439 2810.67) (-0.00315208 -0.00315208 2009.5) (0.0108379 0.0108379 1171.46) (-0.00533565 -0.00533565 522.112) (0.00867809 0.00867809 207.001) (0.00779162 0.00779162 256.307) (0.00567576 0.00567576 598.798) (-0.00544927 -0.00544927 1181) (-0.0179132 -0.0179132 1720.06)
1900          (-0.0431708 -0.0431708 3496.41) (-0.0309419 -0.0309419 3307.63) (-0.0158515 -0.0158515 2792.9) (-0.00375304 -0.00375304 2019) (0.0103829 0.0103829 1198.55) (-0.00701939 -0.00701939 547.201) (0.00885937 0.00885937 222.893) (0.00790776 0.00790776 266.899) (0.00544591 0.00544591 605.33) (-0.00570727 -0.00570727 1175.3) (-0.0175491 -0.0175491 1697.62)
1950          (-0.0422833 -0.0422833 3451.39) (-0.0305045 -0.0305045 3270.03) (-0.0156313 -0.0156313 2775.13) (-0.00429652 -0.00429652 2027.15) (0.00994586 0.00994586 1224.23) (-0.00865961 -0.00865961 571.915) (0.00901327 0.00901327 239.112) (0.0080189 0.0080189 277.523) (0.00522968 0.00522968 611.542) (-0.0059307 -0.0059307 1169.59) (-0.0171793 -0.0171793 1676.04)
2000          (-0.041383 -0.041383 3408.06) (-0.0300451 -0.0300451 3233.66) (-0.0153892 -0.0153892 2757.38) (-0.00478589 -0.00478589 2034.09) (0.00952817 0.00952817 1248.56) (-0.0102481 -0.0102481 596.219) (0.00913974 0.00913974 255.62) (0.0081247 0.0081247 288.177) (0.00502692 0.00502692 617.462) (-0.00612189 -0.00612189 1163.88) (-0.0168063 -0.0168063 1655.27)
2050          (-0.0404756 -0.0404756 3366.33) (-0.029568 -0.029568 3198.47) (-0.0151301 -0.0151301 2739.71) (-0.00522438 -0.00522438 2039.92) (0.00913065 0.00913065 1271.61) (-0.0117782 -0.0117782 620.083) (0.00923897 0.00923897 272.379) (0.00822472 0.00822472 298.862) (0.00483731 0.00483731 623.116) (-0.00628318 -0.00628318 1158.18) (-0.0164319 -0.0164319 1635.25)
2100          (-0.039566 -0.039566 3326.1) (-0.0290768 -0.0290768 3164.38) (-0.0148585 -0.0148585 2722.13) (-0.0056151 -0.0056151 2044.74) (0.00875358 0.00875358 1293.43) (-0.0132448 -0.0132448 643.482) (0.00931137 0.00931137 289.351) (0.00831848 0.00831848 309.577) (0.00466036 0.00466036 628.53) (-0.00641688 -0.00641688 1152.5) (-0.016058 -0.016058 1615.94)
2150          (-0.0386581 -0.0386581 3287.29) (-0.028575 -0.028575 3131.35) (-0.014578 -0.014578 2704.69) (-0.00596103 -0.00596103 2048.64) (0.00839681 0.00839681 1314.08) (-0.0146439 -0.0146439 666.397) (0.00935759 0.00935759 306.501) (0.00840551 0.00840551 320.321) (0.00449551 0.00449551 633.725) (-0.00652519 -0.00652519 1146.86) (-0.015686 -0.015686 1597.3)
2200          (-0.0377554 -0.0377554 3249.82) (-0.0280654 -0.0280654 3099.33) (-0.0142917 -0.0142917 2687.39) (-0.00626502 -0.00626502 2051.72) (0.00805987 0.00805987 1333.61) (-0.0159728 -0.0159728 688.811) (0.00937847 0.00937847 323.794) (0.00848539 0.00848539 331.092) (0.00434213 0.00434213 638.723) (-0.00661024 -0.00661024 1141.26) (-0.015317 -0.015317 1579.3)
2250          (-0.0368607 -0.0368607 3213.61) (-0.0275506 -0.0275506 3068.27) (-0.0140023 -0.0140023 2670.25) (-0.00652981 -0.00652981 2054.03) (0.00774205 0.00774205 1352.08) (-0.0172297 -0.0172297 710.712) (0.009375 0.009375 341.198) (0.00855772 0.00855772 341.89) (0.00419961 0.00419961 643.543) (-0.00667404 -0.00667404 1135.7) (-0.0149522 -0.0149522 1561.9)
2300          (-0.0359766 -0.0359766 3178.59) (-0.0270331 -0.0270331 3038.12) (-0.0137119 -0.0137119 2653.3) (-0.00675802 -0.00675802 2055.66) (0.00744251 0.00744251 1369.55) (-0.0184138 -0.0184138 732.093) (0.00934834 0.00934834 358.682) (0.00862217 0.00862217 352.711) (0.00406731 0.00406731 648.204) (-0.00671846 -0.00671846 1130.21) (-0.0145923 -0.0145923 1545.07)
2350          (-0.0351049 -0.0351049 3144.7) (-0.0265149 -0.0265149 3008.85) (-0.0134225 -0.0134225 2636.53) (-0.00695214 -0.00695214 2056.67) (0.00716028 0.00716028 1386.06) (-0.0195248 -0.0195248 752.948) (0.00929975 0.00929975 376.217) (0.0086785 0.0086785 363.554) (0.0039446 0.0039446 652.722) (-0.00674528 -0.00674528 1124.77) (-0.014238 -0.014238 1528.77)
2400          (-0.0342475 -0.0342475 3111.89) (-0.0259977 -0.0259977 2980.41) (-0.0131355 -0.0131355 2619.97) (-0.00711457 -0.00711457 2057.1) (0.00689434 0.00689434 1401.66) (-0.0205635 -0.0205635 773.273) (0.00923056 0.00923056 393.774) (0.00872651 0.00872651 374.414) (0.00383089 0.00383089 657.113) (-0.00675615 -0.00675615 1119.4) (-0.0138899 -0.0138899 1512.99)
2450          (-0.0334056 -0.0334056 3080.09) (-0.0254831 -0.0254831 2952.76) (-0.0128523 -0.0128523 2603.62) (-0.00724759 -0.00724759 2057.03) (0.00664364 0.00664364 1416.41) (-0.0215308 -0.0215308 793.068) (0.00914219 0.00914219 411.329) (0.00876607 0.00876607 385.29) (0.00372557 0.00372557 661.391) (-0.0067526 -0.0067526 1114.1) (-0.0135485 -0.0135485 1497.7)
2500          (-0.0325805 -0.0325805 3049.27) (-0.0249724 -0.0249724 2925.88) (-0.0125738 -0.0125738 2587.49) (-0.00735338 -0.00735338 2056.48) (0.00640716 0.00640716 1430.34) (-0.0224282 -0.0224282 812.336) (0.00903605 0.00903605 428.856) (0.00879714 0.00879714 396.177) (0.00362811 0.00362811 665.569) (-0.00673605 -0.00673605 1108.88) (-0.013214 -0.013214 1482.87)
2550          (-0.0317729 -0.0317729 3019.37) (-0.0244667 -0.0244667 2899.73) (-0.0123008 -0.0123008 2571.58) (-0.007434 -0.007434 2055.51) (0.00618387 0.00618387 1443.5) (-0.0232578 -0.0232578 831.078) (0.00891359 0.00891359 446.334) (0.00881973 0.00881973 407.073) (0.00353796 0.00353796 669.66) (-0.00670779 -0.00670779 1103.73) (-0.0128868 -0.0128868 1468.48)
2600          (-0.0309836 -0.0309836 2990.34) (-0.0239671 -0.0239671 2874.28) (-0.0120341 -0.0120341 2555.89) (-0.00749143 -0.00749143 2054.16) (0.0059728 0.0059728 1455.93) (-0.0240215 -0.0240215 849.301) (0.00877624 0.00877624 463.741) (0.00883389 0.00883389 417.972) (0.00345463 0.00345463 673.674) (-0.00666904 -0.00666904 1098.67) (-0.012567 -0.012567 1454.51)
2650          (-0.030213 -0.030213 2962.16) (-0.0234743 -0.0234743 2849.51) (-0.011774 -0.011774 2540.44) (-0.00752752 -0.00752752 2052.46) (0.00577303 0.00577303 1467.67) (-0.0247219 -0.0247219 867.009) (0.0086254 0.0086254 481.058) (0.00883973 0.00883973 428.871) (0.00337762 0.00337762 677.621) (-0.00662088 -0.00662088 1093.69) (-0.0122547 -0.0122547 1440.95)
2700          (-0.0294615 -0.0294615 2934.77) (-0.022989 -0.022989 2825.37) (-0.0115209 -0.0115209 2525.21) (-0.00754404 -0.00754404 2050.45) (0.00558369 0.00558369 1478.75) (-0.0253615 -0.0253615 884.211) (0.00846245 0.00846245 498.267) (0.00883742 0.00883742 439.766) (0.00330648 0.00330648 681.511) (-0.00656432 -0.00656432 1088.8) (-0.0119499 -0.0119499 1427.77)
2750          (-0.0287291 -0.0287291 2908.15) (-0.0225118 -0.0225118 2801.86) (-0.011275 -0.011275 2510.21) (-0.00754265 -0.00754265 2048.15) (0.00540397 0.00540397 1489.22) (-0.0259429 -0.0259429 900.914) (0.0082887 0.0082887 515.351) (0.00882715 0.00882715 450.653) (0.00324079 0.00324079 685.352) (-0.00650027 -0.00650027 1084) (-0.0116527 -0.0116527 1414.96)
2800          (-0.0280161 -0.0280161 2882.27) (-0.022043 -0.022043 2778.95) (-0.0110365 -0.0110365 2495.45) (-0.00752491 -0.00752491 2045.6) (0.00523311 0.00523311 1499.1) (-0.0264688 -0.0264688 917.127) (0.00810542 0.00810542 532.297) (0.00880914 0.00880914 461.526) (0.00318012 0.00318012 689.152) (-0.00642958 -0.00642958 1079.29) (-0.0113631 -0.0113631 1402.51)
2850          (-0.0273222 -0.0273222 2857.08) (-0.0215831 -0.0215831 2756.61) (-0.0108054 -0.0108054 2480.91) (-0.0074923 -0.0074923 2042.81) (0.00507043 0.00507043 1508.42) (-0.026942 -0.026942 932.859) (0.00791381 0.00791381 549.09) (0.00878365 0.00878365 472.382) (0.0031241 0.0031241 692.918) (-0.00635299 -0.00635299 1074.67) (-0.0110809 -0.0110809 1390.4)
2900          (-0.0266473 -0.0266473 2832.57) (-0.0211322 -0.0211322 2734.82) (-0.0105817 -0.0105817 2466.61) (-0.00744619 -0.00744619 2039.81) (0.00491527 0.00491527 1517.22) (-0.0273651 -0.0273651 948.121) (0.00771503 0.00771503 565.718) (0.00875096 0.00875096 483.217) (0.00307236 0.00307236 696.655) (-0.00627118 -0.00627118 1070.15) (-0.010806 -0.010806 1378.61)
2950          (-0.0259914 -0.0259914 2808.7) (-0.0206907 -0.0206907 2713.57) (-0.0103653 -0.0103653 2452.53) (-0.00738788 -0.00738788 2036.63) (0.00476707 0.00476707 1525.52) (-0.0277409 -0.0277409 962.923) (0.00751013 0.00751013 582.17) (0.00871136 0.00871136 494.025) (0.00302455 0.00302455 700.37) (-0.00618479 -0.00618479 1065.72) (-0.0105383 -0.0105383 1367.13)
3000          (-0.025354 -0.025354 2785.45) (-0.0202585 -0.0202585 2692.82) (-0.0101562 -0.0101562 2438.68) (-0.00731856 -0.00731856 2033.28) (0.00462527 0.00462527 1533.35) (-0.028072 -0.028072 977.274) (0.00730013 0.00730013 598.435) (0.00866516 0.00866516 504.803) (0.00298034 0.00298034 704.067) (-0.00609436 -0.00609436 1061.39) (-0.0102776 -0.0102776 1355.96)
3050          (-0.0247348 -0.0247348 2762.79) (-0.0198357 -0.0198357 2672.58) (-0.0099542 -0.0099542 2425.06) (-0.00723935 -0.00723935 2029.78) (0.00448941 0.00448941 1540.73) (-0.0283609 -0.0283609 991.187) (0.00708595 0.00708595 614.506) (0.00861266 0.00861266 515.545) (0.00293944 0.00293944 707.751) (-0.00600042 -0.00600042 1057.15) (-0.0100238 -0.0100238 1345.08)
3100          (-0.0241335 -0.0241335 2740.71) (-0.0194224 -0.0194224 2652.81) (-0.0097591 -0.0097591 2411.66) (-0.00715131 -0.00715131 2026.15) (0.00435902 0.00435902 1547.7) (-0.0286102 -0.0286102 1004.67) (0.00686849 0.00686849 630.374) (0.0085542 0.0085542 526.249) (0.00290156 0.00290156 711.426) (-0.00590341 -0.00590341 1053.02) (-0.00977665 -0.00977665 1334.48)
3150          (-0.0235497 -0.0235497 2719.18) (-0.0190186 -0.0190186 2633.5) (-0.00957075 -0.00957075 2398.48) (-0.00705539 -0.00705539 2022.39) (0.00423372 0.00423372 1554.26) (-0.0288223 -0.0288223 1017.74) (0.00664852 0.00664852 646.032) (0.0084901 0.0084901 536.909) (0.00286642 0.00286642 715.095) (-0.00580376 -0.00580376 1048.98) (-0.00953599 -0.00953599 1324.15)
3200          (-0.0229829 -0.0229829 2698.17) (-0.0186242 -0.0186242 2614.64) (-0.00938894 -0.00938894 2385.52) (-0.0069525 -0.0069525 2018.53) (0.00411313 0.00411313 1560.44) (-0.0289995 -0.0289995 1030.4) (0.0064268 0.0064268 661.475) (0.00842067 0.00842067 547.522) (0.00283378 0.00283378 718.761) (-0.00570183 -0.00570183 1045.04) (-0.00930162 -0.00930162 1314.09)
3250          (-0.0224328 -0.0224328 2677.68) (-0.0182391 -0.0182391 2596.21) (-0.00921346 -0.00921346 2372.77) (-0.00684347 -0.00684347 2014.58) (0.00399693 0.00399693 1566.26) (-0.029144 -0.029144 1042.67) (0.00620401 0.00620401 676.697) (0.00834625 0.00834625 558.084) (0.0028034 0.0028034 722.428) (-0.00559797 -0.00559797 1041.2) (-0.00907334 -0.00907334 1304.28)
3300          (-0.0218988 -0.0218988 2657.68) (-0.0178632 -0.0178632 2578.2) (-0.00904408 -0.00904408 2360.24) (-0.00672908 -0.00672908 2010.54) (0.0038848 0.0038848 1571.75) (-0.0292579 -0.0292579 1054.55) (0.00598076 0.00598076 691.694) (0.00826716 0.00826716 568.59) (0.00277506 0.00277506 726.097) (-0.00549248 -0.00549248 1037.45) (-0.00885094 -0.00885094 1294.71)
3350          (-0.0213805 -0.0213805 2638.15) (-0.0174963 -0.0174963 2560.59) (-0.00888059 -0.00888059 2347.92) (-0.00661002 -0.00661002 2006.44) (0.00377649 0.00377649 1576.91) (-0.0293432 -0.0293432 1066.06) (0.00575763 0.00575763 706.462) (0.00818371 0.00818371 579.038) (0.00274857 0.00274857 729.77) (-0.00538564 -0.00538564 1033.81) (-0.00863424 -0.00863424 1285.38)
3400          (-0.0208775 -0.0208775 2619.09) (-0.0171384 -0.0171384 2543.37) (-0.00872274 -0.00872274 2335.8) (-0.00648696 -0.00648696 2002.27) (0.00367174 0.00367174 1581.76) (-0.0294019 -0.0294019 1077.21) (0.00553512 0.00553512 720.999) (0.00809621 0.00809621 589.423) (0.00272373 0.00272373 733.449) (-0.00527771 -0.00527771 1030.26) (-0.00842303 -0.00842303 1276.28)
3450          (-0.0203893 -0.0203893 2600.46) (-0.0167893 -0.0167893 2526.53) (-0.00857032 -0.00857032 2323.88) (-0.00636051 -0.00636051 1998.05) (0.00357033 0.00357033 1586.33) (-0.0294358 -0.0294358 1088) (0.00531371 0.00531371 735.301) (0.00800496 0.00800496 599.743) (0.00270037 0.00270037 737.136) (-0.0051689 -0.0051689 1026.82) (-0.00821712 -0.00821712 1267.4)
3500          (-0.0199155 -0.0199155 2582.26) (-0.0164487 -0.0164487 2510.06) (-0.00842311 -0.00842311 2312.17) (-0.00623121 -0.00623121 1993.78) (0.00347206 0.00347206 1590.62) (-0.0294465 -0.0294465 1098.45) (0.0050938 0.0050938 749.368) (0.00791026 0.00791026 609.993) (0.00267834 0.00267834 740.831) (-0.00505943 -0.00505943 1023.47) (-0.00801631 -0.00801631 1258.74)
3550          (-0.0217043 -0.0217043 2564.48) (-0.0280302 -0.0280302 2493.94) (-0.0264092 -0.0264092 2300.66) (-0.0180541 -0.0180541 1989.48) (-0.00655808 -0.00655808 1594.64) (-0.0112228 -0.0112228 1108.56) (0.0114476 0.0114476 763.221) (0.0100546 0.0100546 620.181) (0.0049846 0.0049846 744.537) (-0.00173646 -0.00173646 1020.21) (-0.00555556 -0.00555556 1250.29)
3600          (-0.0293697 -0.0293697 2547.12) (-0.029081 -0.029081 2478.19) (-0.0238218 -0.0238218 2289.34) (-0.0159551 -0.0159551 1985.14) (-0.00873462 -0.00873462 1598.41) (-0.00583046 -0.00583046 1118.29) (-0.00515648 -0.00515648 776.843) (-0.000804866 -0.000804866 630.3) (4.00202e-05 4.00203e-05 748.255) (-0.00125233 -0.00125233 1017.05) (-0.00569001 -0.00569001 1242.04)
3650          (-0.0311002 -0.0311002 2530.15) (-0.0462636 -0.0462636 2462.77) (-0.0331386 -0.0331386 2278.21) (-0.0211467 -0.0211467 1980.78) (-0.00724837 -0.00724837 1601.94) (-0.00440658 -0.00440658 1127.71) (-0.00573595 -0.00573595 790.217) (-0.00316709 -0.00316709 640.341) (-0.00241409 -0.00241409 751.985) (-0.00418016 -0.00418016 1013.99) (-0.00631495 -0.00631495 1233.99)
3700          (-0.0289316 -0.0289317 2513.55) (-0.0544342 -0.0544342 2447.68) (-0.0348714 -0.0348714 2267.27) (-0.0200014 -0.0200014 1976.39) (-0.00677341 -0.00677341 1605.23) (0.0252169 0.0252169 1136.86) (-0.0148953 -0.0148953 803.365) (-0.00665882 -0.00665882 650.31) (-0.00611196 -0.00611196 755.729) (-0.0059209 -0.0059209 1011.02) (-6.16885e-05 -6.16884e-05 1226.13)
3750          (-0.0189723 -0.0189723 2497.29) (-0.0205902 -0.0205902 2432.89) (-0.010353 -0.010353 2256.52) (-0.00401211 -0.0040121 1972) (-0.00279162 -0.00279162 1608.33) (0.00439626 0.00439626 1145.76) (-0.00253517 -0.00253517 816.235) (0.00024582 0.00024582 660.175) (-0.00121884 -0.00121884 759.474) (-0.00385773 -0.00385773 1008.14) (-0.00431771 -0.00431771 1218.47)
3800          (0.0230187 0.0230187 2481.37) (0.0181346 0.0181346 2418.38) (0.00695422 0.00695422 2245.94) (-0.00549978 -0.00549978 1967.61) (-0.00190711 -0.00190711 1611.23) (0.0329949 0.0329949 1154.3) (0.00426392 0.00426392 828.879) (-0.00128587 -0.00128587 669.967) (0.00154843 0.00154843 763.233) (0.00550486 0.00550486 1005.36) (0.0069526 0.0069526 1210.98)
3850          (-0.0133021 -0.0133021 2465.84) (-0.0101509 -0.0101509 2404.23) (-0.00345532 -0.00345532 2235.55) (0.00803118 0.00803118 1963.18) (0.00112473 0.00112473 1613.92) (0.00595417 0.00595417 1162.65) (-0.00324846 -0.00324846 841.299) (-0.00223889 -0.00223889 679.67) (-0.0027338 -0.0027338 767.01) (-0.00384387 -0.00384387 1002.68) (-0.00381085 -0.00381085 1203.68)
3900          (0.0153538 0.0153538 2450.6) (0.0127365 0.0127365 2390.31) (0.00559849 0.00559849 2225.32) (-0.00945743 -0.00945743 1958.79) (-0.00399959 -0.00399959 1616.44) (0.0276501 0.0276501 1170.67) (0.0052883 0.0052883 853.467) (0.00275562 0.00275562 689.276) (0.00373587 0.00373587 770.786) (0.00474873 0.00474873 1000.08) (0.00578053 0.00578053 1196.55)
3950          (-0.0103689 -0.0103689 2435.72) (-0.00912351 -0.00912351 2376.72) (-0.00373003 -0.00373003 2215.27) (0.00931046 0.00931046 1954.36) (0.00248777 0.00248777 1618.78) (0.00805649 0.00805649 1178.48) (-0.00454606 -0.00454606 865.421) (-0.00519367 -0.00519367 698.805) (-0.0048581 -0.0048581 774.588) (-0.00416194 -0.00416194 997.589) (-0.00392562 -0.00392562 1189.6)
4000          (0.0104339 0.0104339 2421.12) (0.0102838 0.0102838 2363.36) (0.00514995 0.00514995 2205.38) (-0.00840961 -0.00840961 1949.97) (-0.00464976 -0.00464976 1620.97) (0.023515 0.023515 1186) (0.00557803 0.00557803 877.122) (0.00468704 0.00468704 708.221) (0.00520518 0.00520518 778.38) (0.0046844 0.0046844 995.17) (0.00552086 0.00552086 1182.81)