# Probe 0 (0.0015 0.0015 0)
# Probe 1 (0.0015 0.0015 0.002)
# Probe 2 (0.0015 0.0015 0.004)
# Probe 3 (0.0015 0.0015 0.006)
# Probe 4 (0.0015 0.0015 0.008)
# Probe 5 (0.0015 0.0015 0.01)
# Probe 6 (0.0015 0.0015 0.012)
# Probe 7 (0.0015 0.0015 0.014)
# Probe 8 (0.0015 0.0015 0.016)
# Probe 9 (0.0015 0.0015 0.018)
# Probe 10 (0.0015 0.0015 0.02)
# Time        0             1             2             3             4             5             6             7             8             9             10           
50            (0.0046863 0.00468514 6546.92) (0.0046863 0.00468514 6546.92) (0.0046863 0.00468514 6546.92) (0.0046863 0.00468514 6546.92) (0.0046863 0.00468514 6546.92) (0.0046863 0.00468514 6546.92) (0.00386715 0.00386646 5964.05) (0.00386715 0.00386646 5964.05) (0.00386715 0.00386646 5964.05) (0.00386715 0.00386646 5964.05) (0.00386715 0.00386646 5964.05)
100           (0.00147824 0.00148229 6297.21) (0.00147824 0.00148229 6297.21) (0.00147824 0.00148229 6297.21) (0.00147824 0.00148229 6297.21) (0.00147824 0.00148229 6297.21) (0.00147824 0.00148229 6297.21) (0.00130098 0.00130515 6214.15) (0.00130098 0.00130515 6214.15) (0.00130098 0.00130515 6214.15) (0.00130098 0.00130515 6214.15) (0.00130098 0.00130515 6214.15)
150           (-0.000392979 -0.000390398 6260.85) (-0.000392979 -0.000390398 6260.85) (-0.000392979 -0.000390398 6260.85) (-0.000392979 -0.000390398 6260.85) (-0.000392979 -0.000390398 6260.85) (-0.000392979 -0.000390398 6260.85) (-0.000361226 -0.000358536 6247.41) (-0.000361226 -0.000358536 6247.41) (-0.000361226 -0.000358536 6247.41) (-0.000361226 -0.000358536 6247.41) (-0.000361226 -0.000358536 6247.41)
200           (9.12627e-05 9.44039e-05 6254.99) (9.12627e-05 9.44039e-05 6254.99) (9.12627e-05 9.44039e-05 6254.99) (9.12627e-05 9.44039e-05 6254.99) (9.12627e-05 9.44039e-05 6254.99) (9.12627e-05 9.44039e-05 6254.99) (0.00013164 0.000134319 6252.7) (0.00013164 0.000134319 6252.7) (0.00013164 0.000134319 6252.7) (0.00013164 0.000134319 6252.7) (0.00013164 0.000134319 6252.7)
250           (0.000552261 0.000556004 6254.09) (0.000552261 0.000556004 6254.09) (0.000552261 0.000556004 6254.09) (0.000552261 0.000556004 6254.09) (0.000552261 0.000556004 6254.09) (0.000552261 0.000556004 6254.09) (0.000601132 0.000603855 6253.5) (0.000601132 0.000603855 6253.5) (0.000601132 0.000603855 6253.5) (0.000601132 0.000603855 6253.5) (0.000601132 0.000603855 6253.5)
300           (-9.22007e-05 -8.98168e-05 6253.93) (-9.22007e-05 -8.98168e-05 6253.93) (-9.22007e-05 -8.98168e-05 6253.93) (-9.22007e-05 -8.98168e-05 6253.93) (-9.22007e-05 -8.98168e-05 6253.93) (-9.22007e-05 -8.98168e-05 6253.93) (-0.000235278 -0.000233525 6253.64) (-0.000235278 -0.000233525 6253.64) (-0.000235278 -0.000233525 6253.64) (-0.000235278 -0.000233525 6253.64) (-0.000235278 -0.000233525 6253.64)
350           (-9.22007e-05 -8.98168e-05 6253.93) (-9.22007e-05 -8.98168e-05 6253.93) (-9.22007e-05 -8.98168e-05 6253.93) (-9.22007e-05 -8.98168e-05 6253.93) (-9.22007e-05 -8.98168e-05 6253.93) (-9.22007e-05 -8.98168e-05 6253.93) (-0.000235278 -0.000233525 6253.64) (-0.000235278 -0.000233525 6253.64) (-0.000235278 -0.000233525 6253.64) (-0.000235278 -0.000233525 6253.64) (-0.000235278 -0.000233525 6253.64)
400           (-9.22007e-05 -8.98168e-05 6253.93) (-9.22007e-05 -8.98168e-05 6253.93) (-9.22007e-05 -8.98168e-05 6253.93) (-9.22007e-05 -8.98168e-05 6253.93) (-9.22007e-05 -8.98168e-05 6253.93) (-9.22007e-05 -8.98168e-05 6253.93) (-0.000235278 -0.000233525 6253.64) (-0.000235278 -0.000233525 6253.64) (-0.000235278 -0.000233525 6253.64) (-0.000235278 -0.000233525 6253.64) (-0.000235278 -0.000233525 6253.64)
450           (-9.22007e-05 -8.98168e-05 6253.93) (-9.22007e-05 -8.98168e-05 6253.93) (-9.22007e-05 -8.98168e-05 6253.93) (-9.22007e-05 -8.98168e-05 6253.93) (-9.22007e-05 -8.98168e-05 6253.93) (-9.22007e-05 -8.98168e-05 6253.93) (-0.000235278 -0.000233525 6253.64) (-0.000235278 -0.000233525 6253.64) (-0.000235278 -0.000233525 6253.64) (-0.000235278 -0.000233525 6253.64) (-0.000235278 -0.000233525 6253.64)
500           (-9.22007e-05 -8.98168e-05 6253.93) (-9.22007e-05 -8.98168e-05 6253.93) (-9.22007e-05 -8.98168e-05 6253.93) (-9.22007e-05 -8.98168e-05 6253.93) (-9.22007e-05 -8.98168e-05 6253.93) (-9.22007e-05 -8.98168e-05 6253.93) (-0.000235278 -0.000233525 6253.64) (-0.000235278 -0.000233525 6253.64) (-0.000235278 -0.000233525 6253.64) (-0.000235278 -0.000233525 6253.64) (-0.000235278 -0.000233525 6253.64)
550           (-9.22007e-05 -8.98168e-05 6253.93) (-9.22007e-05 -8.98168e-05 6253.93) (-9.22007e-05 -8.98168e-05 6253.93) (-9.22007e-05 -8.98168e-05 6253.93) (-9.22007e-05 -8.98168e-05 6253.93) (-9.22007e-05 -8.98168e-05 6253.93) (-0.000235278 -0.000233525 6253.64) (-0.000235278 -0.000233525 6253.64) (-0.000235278 -0.000233525 6253.64) (-0.000235278 -0.000233525 6253.64) (-0.000235278 -0.000233525 6253.64)
600           (-9.22007e-05 -8.98168e-05 6253.93) (-9.22007e-05 -8.98168e-05 6253.93) (-9.22007e-05 -8.98168e-05 6253.93) (-9.22007e-05 -8.98168e-05 6253.93) (-9.22007e-05 -8.98168e-05 6253.93) (-9.22007e-05 -8.98168e-05 6253.93) (-0.000235278 -0.000233525 6253.64) (-0.000235278 -0.000233525 6253.64) (-0.000235278 -0.000233525 6253.64) (-0.000235278 -0.000233525 6253.64) (-0.000235278 -0.000233525 6253.64)
650           (-9.22007e-05 -8.98168e-05 6253.93) (-9.22007e-05 -8.98168e-05 6253.93) (-9.22007e-05 -8.98168e-05 6253.93) (-9.22007e-05 -8.98168e-05 6253.93) (-9.22007e-05 -8.98168e-05 6253.93) (-9.22007e-05 -8.98168e-05 6253.93) (-0.000235278 -0.000233525 6253.64) (-0.000235278 -0.000233525 6253.64) (-0.000235278 -0.000233525 6253.64) (-0.000235278 -0.000233525 6253.64) (-0.000235278 -0.000233525 6253.64)
700           (-9.22007e-05 -8.98168e-05 6253.93) (-9.22007e-05 -8.98168e-05 6253.93) (-9.22007e-05 -8.98168e-05 6253.93) (-9.22007e-05 -8.98168e-05 6253.93) (-9.22007e-05 -8.98168e-05 6253.93) (-9.22007e-05 -8.98168e-05 6253.93) (-0.000235278 -0.000233525 6253.64) (-0.000235278 -0.000233525 6253.64) (-0.000235278 -0.000233525 6253.64) (-0.000235278 -0.000233525 6253.64) (-0.000235278 -0.000233525 6253.64)
750           (-9.22007e-05 -8.98168e-05 6253.93) (-9.22007e-05 -8.98168e-05 6253.93) (-9.22007e-05 -8.98168e-05 6253.93) (-9.22007e-05 -8.98168e-05 6253.93) (-9.22007e-05 -8.98168e-05 6253.93) (-9.22007e-05 -8.98168e-05 6253.93) (-0.000235278 -0.000233525 6253.64) (-0.000235278 -0.000233525 6253.64) (-0.000235278 -0.000233525 6253.64) (-0.000235278 -0.000233525 6253.64) (-0.000235278 -0.000233525 6253.64)
800           (-9.22007e-05 -8.98168e-05 6253.93) (-9.22007e-05 -8.98168e-05 6253.93) (-9.22007e-05 -8.98168e-05 6253.93) (-9.22007e-05 -8.98168e-05 6253.93) (-9.22007e-05 -8.98168e-05 6253.93) (-9.22007e-05 -8.98168e-05 6253.93) (-0.000235278 -0.000233525 6253.64) (-0.000235278 -0.000233525 6253.64) (-0.000235278 -0.000233525 6253.64) (-0.000235278 -0.000233525 6253.64) (-0.000235278 -0.000233525 6253.64)
850           (-9.22007e-05 -8.98168e-05 6253.93) (-9.22007e-05 -8.98168e-05 6253.93) (-9.22007e-05 -8.98168e-05 6253.93) (-9.22007e-05 -8.98168e-05 6253.93) (-9.22007e-05 -8.98168e-05 6253.93) (-9.22007e-05 -8.98168e-05 6253.93) (-0.000235278 -0.000233525 6253.64) (-0.000235278 -0.000233525 6253.64) (-0.000235278 -0.000233525 6253.64) (-0.000235278 -0.000233525 6253.64) (-0.000235278 -0.000233525 6253.64)
900           (-9.22007e-05 -8.98168e-05 6253.93) (-9.22007e-05 -8.98168e-05 6253.93) (-9.22007e-05 -8.98168e-05 6253.93) (-9.22007e-05 -8.98168e-05 6253.93) (-9.22007e-05 -8.98168e-05 6253.93) (-9.22007e-05 -8.98168e-05 6253.93) (-0.000235278 -0.000233525 6253.64) (-0.000235278 -0.000233525 6253.64) (-0.000235278 -0.000233525 6253.64) (-0.000235278 -0.000233525 6253.64) (-0.000235278 -0.000233525 6253.64)
950           (-9.22007e-05 -8.98168e-05 6253.93) (-9.22007e-05 -8.98168e-05 6253.93) (-9.22007e-05 -8.98168e-05 6253.93) (-9.22007e-05 -8.98168e-05 6253.93) (-9.22007e-05 -8.98168e-05 6253.93) (-9.22007e-05 -8.98168e-05 6253.93) (-0.000235278 -0.000233525 6253.64) (-0.000235278 -0.000233525 6253.64) (-0.000235278 -0.000233525 6253.64) (-0.000235278 -0.000233525 6253.64) (-0.000235278 -0.000233525 6253.64)
1000          (-9.22007e-05 -8.98168e-05 6253.93) (-9.22007e-05 -8.98168e-05 6253.93) (-9.22007e-05 -8.98168e-05 6253.93) (-9.22007e-05 -8.98168e-05 6253.93) (-9.22007e-05 -8.98168e-05 6253.93) (-9.22007e-05 -8.98168e-05 6253.93) (-0.000235278 -0.000233525 6253.64) (-0.000235278 -0.000233525 6253.64) (-0.000235278 -0.000233525 6253.64) (-0.000235278 -0.000233525 6253.64) (-0.000235278 -0.000233525 6253.64)
1050          (-9.22007e-05 -8.98168e-05 6253.93) (-9.22007e-05 -8.98168e-05 6253.93) (-9.22007e-05 -8.98168e-05 6253.93) (-9.22007e-05 -8.98168e-05 6253.93) (-9.22007e-05 -8.98168e-05 6253.93) (-9.22007e-05 -8.98168e-05 6253.93) (-0.000235278 -0.000233525 6253.64) (-0.000235278 -0.000233525 6253.64) (-0.000235278 -0.000233525 6253.64) (-0.000235278 -0.000233525 6253.64) (-0.000235278 -0.000233525 6253.64)
1100          (-9.22007e-05 -8.98168e-05 6253.93) (-9.22007e-05 -8.98168e-05 6253.93) (-9.22007e-05 -8.98168e-05 6253.93) (-9.22007e-05 -8.98168e-05 6253.93) (-9.22007e-05 -8.98168e-05 6253.93) (-9.22007e-05 -8.98168e-05 6253.93) (-0.000235278 -0.000233525 6253.64) (-0.000235278 -0.000233525 6253.64) (-0.000235278 -0.000233525 6253.64) (-0.000235278 -0.000233525 6253.64) (-0.000235278 -0.000233525 6253.64)
1150          (-9.22007e-05 -8.98168e-05 6253.93) (-9.22007e-05 -8.98168e-05 6253.93) (-9.22007e-05 -8.98168e-05 6253.93) (-9.22007e-05 -8.98168e-05 6253.93) (-9.22007e-05 -8.98168e-05 6253.93) (-9.22007e-05 -8.98168e-05 6253.93) (-0.000235278 -0.000233525 6253.64) (-0.000235278 -0.000233525 6253.64) (-0.000235278 -0.000233525 6253.64) (-0.000235278 -0.000233525 6253.64) (-0.000235278 -0.000233525 6253.64)
1200          (-9.22007e-05 -8.98168e-05 6253.93) (-9.22007e-05 -8.98168e-05 6253.93) (-9.22007e-05 -8.98168e-05 6253.93) (-9.22007e-05 -8.98168e-05 6253.93) (-9.22007e-05 -8.98168e-05 6253.93) (-9.22007e-05 -8.98168e-05 6253.93) (-0.000235278 -0.000233525 6253.64) (-0.000235278 -0.000233525 6253.64) (-0.000235278 -0.000233525 6253.64) (-0.000235278 -0.000233525 6253.64) (-0.000235278 -0.000233525 6253.64)
1250          (-9.22007e-05 -8.98168e-05 6253.93) (-9.22007e-05 -8.98168e-05 6253.93) (-9.22007e-05 -8.98168e-05 6253.93) (-9.22007e-05 -8.98168e-05 6253.93) (-9.22007e-05 -8.98168e-05 6253.93) (-9.22007e-05 -8.98168e-05 6253.93) (-0.000235278 -0.000233525 6253.64) (-0.000235278 -0.000233525 6253.64) (-0.000235278 -0.000233525 6253.64) (-0.000235278 -0.000233525 6253.64) (-0.000235278 -0.000233525 6253.64)
1300          (-9.22007e-05 -8.98168e-05 6253.93) (-9.22007e-05 -8.98168e-05 6253.93) (-9.22007e-05 -8.98168e-05 6253.93) (-9.22007e-05 -8.98168e-05 6253.93) (-9.22007e-05 -8.98168e-05 6253.93) (-9.22007e-05 -8.98168e-05 6253.93) (-0.000235278 -0.000233525 6253.64) (-0.000235278 -0.000233525 6253.64) (-0.000235278 -0.000233525 6253.64) (-0.000235278 -0.000233525 6253.64) (-0.000235278 -0.000233525 6253.64)
1350          (-9.22007e-05 -8.98168e-05 6253.93) (-9.22007e-05 -8.98168e-05 6253.93) (-9.22007e-05 -8.98168e-05 6253.93) (-9.22007e-05 -8.98168e-05 6253.93) (-9.22007e-05 -8.98168e-05 6253.93) (-9.22007e-05 -8.98168e-05 6253.93) (-0.000235278 -0.000233525 6253.64) (-0.000235278 -0.000233525 6253.64) (-0.000235278 -0.000233525 6253.64) (-0.000235278 -0.000233525 6253.64) (-0.000235278 -0.000233525 6253.64)
1400          (-9.22007e-05 -8.98168e-05 6253.93) (-9.22007e-05 -8.98168e-05 6253.93) (-9.22007e-05 -8.98168e-05 6253.93) (-9.22007e-05 -8.98168e-05 6253.93) (-9.22007e-05 -8.98168e-05 6253.93) (-9.22007e-05 -8.98168e-05 6253.93) (-0.000235278 -0.000233525 6253.64) (-0.000235278 -0.000233525 6253.64) (-0.000235278 -0.000233525 6253.64) (-0.000235278 -0.000233525 6253.64) (-0.000235278 -0.000233525 6253.64)
1450          (-9.22007e-05 -8.98168e-05 6253.93) (-9.22007e-05 -8.98168e-05 6253.93) (-9.22007e-05 -8.98168e-05 6253.93) (-9.22007e-05 -8.98168e-05 6253.93) (-9.22007e-05 -8.98168e-05 6253.93) (-9.22007e-05 -8.98168e-05 6253.93) (-0.000235278 -0.000233525 6253.64) (-0.000235278 -0.000233525 6253.64) (-0.000235278 -0.000233525 6253.64) (-0.000235278 -0.000233525 6253.64) (-0.000235278 -0.000233525 6253.64)
1500          (-9.22007e-05 -8.98168e-05 6253.93) (-9.22007e-05 -8.98168e-05 6253.93) (-9.22007e-05 -8.98168e-05 6253.93) (-9.22007e-05 -8.98168e-05 6253.93) (-9.22007e-05 -8.98168e-05 6253.93) (-9.22007e-05 -8.98168e-05 6253.93) (-0.000235278 -0.000233525 6253.64) (-0.000235278 -0.000233525 6253.64) (-0.000235278 -0.000233525 6253.64) (-0.000235278 -0.000233525 6253.64) (-0.000235278 -0.000233525 6253.64)
1550          (-9.22007e-05 -8.98168e-05 6253.93) (-9.22007e-05 -8.98168e-05 6253.93) (-9.22007e-05 -8.98168e-05 6253.93) (-9.22007e-05 -8.98168e-05 6253.93) (-9.22007e-05 -8.98168e-05 6253.93) (-9.22007e-05 -8.98168e-05 6253.93) (-0.000235278 -0.000233525 6253.64) (-0.000235278 -0.000233525 6253.64) (-0.000235278 -0.000233525 6253.64) (-0.000235278 -0.000233525 6253.64) (-0.000235278 -0.000233525 6253.64)
1600          (-9.22007e-05 -8.98168e-05 6253.93) (-9.22007e-05 -8.98168e-05 6253.93) (-9.22007e-05 -8.98168e-05 6253.93) (-9.22007e-05 -8.98168e-05 6253.93) (-9.22007e-05 -8.98168e-05 6253.93) (-9.22007e-05 -8.98168e-05 6253.93) (-0.000235278 -0.000233525 6253.64) (-0.000235278 -0.000233525 6253.64) (-0.000235278 -0.000233525 6253.64) (-0.000235278 -0.000233525 6253.64) (-0.000235278 -0.000233525 6253.64)
1650          (-9.22007e-05 -8.98168e-05 6253.93) (-9.22007e-05 -8.98168e-05 6253.93) (-9.22007e-05 -8.98168e-05 6253.93) (-9.22007e-05 -8.98168e-05 6253.93) (-9.22007e-05 -8.98168e-05 6253.93) (-9.22007e-05 -8.98168e-05 6253.93) (-0.000235278 -0.000233525 6253.64) (-0.000235278 -0.000233525 6253.64) (-0.000235278 -0.000233525 6253.64) (-0.000235278 -0.000233525 6253.64) (-0.000235278 -0.000233525 6253.64)
1700          (-9.22007e-05 -8.98168e-05 6253.93) (-9.22007e-05 -8.98168e-05 6253.93) (-9.22007e-05 -8.98168e-05 6253.93) (-9.22007e-05 -8.98168e-05 6253.93) (-9.22007e-05 -8.98168e-05 6253.93) (-9.22007e-05 -8.98168e-05 6253.93) (-0.000235278 -0.000233525 6253.64) (-0.000235278 -0.000233525 6253.64) (-0.000235278 -0.000233525 6253.64) (-0.000235278 -0.000233525 6253.64) (-0.000235278 -0.000233525 6253.64)
1750          (-9.22007e-05 -8.98168e-05 6253.93) (-9.22007e-05 -8.98168e-05 6253.93) (-9.22007e-05 -8.98168e-05 6253.93) (-9.22007e-05 -8.98168e-05 6253.93) (-9.22007e-05 -8.98168e-05 6253.93) (-9.22007e-05 -8.98168e-05 6253.93) (-0.000235278 -0.000233525 6253.64) (-0.000235278 -0.000233525 6253.64) (-0.000235278 -0.000233525 6253.64) (-0.000235278 -0.000233525 6253.64) (-0.000235278 -0.000233525 6253.64)
1800          (-9.22007e-05 -8.98168e-05 6253.93) (-9.22007e-05 -8.98168e-05 6253.93) (-9.22007e-05 -8.98168e-05 6253.93) (-9.22007e-05 -8.98168e-05 6253.93) (-9.22007e-05 -8.98168e-05 6253.93) (-9.22007e-05 -8.98168e-05 6253.93) (-0.000235278 -0.000233525 6253.64) (-0.000235278 -0.000233525 6253.64) (-0.000235278 -0.000233525 6253.64) (-0.000235278 -0.000233525 6253.64) (-0.000235278 -0.000233525 6253.64)
1850          (-9.22007e-05 -8.98168e-05 6253.93) (-9.22007e-05 -8.98168e-05 6253.93) (-9.22007e-05 -8.98168e-05 6253.93) (-9.22007e-05 -8.98168e-05 6253.93) (-9.22007e-05 -8.98168e-05 6253.93) (-9.22007e-05 -8.98168e-05 6253.93) (-0.000235278 -0.000233525 6253.64) (-0.000235278 -0.000233525 6253.64) (-0.000235278 -0.000233525 6253.64) (-0.000235278 -0.000233525 6253.64) (-0.000235278 -0.000233525 6253.64)
1900          (-9.22007e-05 -8.98168e-05 6253.93) (-9.22007e-05 -8.98168e-05 6253.93) (-9.22007e-05 -8.98168e-05 6253.93) (-9.22007e-05 -8.98168e-05 6253.93) (-9.22007e-05 -8.98168e-05 6253.93) (-9.22007e-05 -8.98168e-05 6253.93) (-0.000235278 -0.000233525 6253.64) (-0.000235278 -0.000233525 6253.64) (-0.000235278 -0.000233525 6253.64) (-0.000235278 -0.000233525 6253.64) (-0.000235278 -0.000233525 6253.64)
1950          (-9.22007e-05 -8.98168e-05 6253.93) (-9.22007e-05 -8.98168e-05 6253.93) (-9.22007e-05 -8.98168e-05 6253.93) (-9.22007e-05 -8.98168e-05 6253.93) (-9.22007e-05 -8.98168e-05 6253.93) (-9.22007e-05 -8.98168e-05 6253.93) (-0.000235278 -0.000233525 6253.64) (-0.000235278 -0.000233525 6253.64) (-0.000235278 -0.000233525 6253.64) (-0.000235278 -0.000233525 6253.64) (-0.000235278 -0.000233525 6253.64)
2000          (-9.22007e-05 -8.98168e-05 6253.93) (-9.22007e-05 -8.98168e-05 6253.93) (-9.22007e-05 -8.98168e-05 6253.93) (-9.22007e-05 -8.98168e-05 6253.93) (-9.22007e-05 -8.98168e-05 6253.93) (-9.22007e-05 -8.98168e-05 6253.93) (-0.000235278 -0.000233525 6253.64) (-0.000235278 -0.000233525 6253.64) (-0.000235278 -0.000233525 6253.64) (-0.000235278 -0.000233525 6253.64) (-0.000235278 -0.000233525 6253.64)
2050          (-9.22007e-05 -8.98168e-05 6253.93) (-9.22007e-05 -8.98168e-05 6253.93) (-9.22007e-05 -8.98168e-05 6253.93) (-9.22007e-05 -8.98168e-05 6253.93) (-9.22007e-05 -8.98168e-05 6253.93) (-9.22007e-05 -8.98168e-05 6253.93) (-0.000235278 -0.000233525 6253.64) (-0.000235278 -0.000233525 6253.64) (-0.000235278 -0.000233525 6253.64) (-0.000235278 -0.000233525 6253.64) (-0.000235278 -0.000233525 6253.64)
2100          (-9.22007e-05 -8.98168e-05 6253.93) (-9.22007e-05 -8.98168e-05 6253.93) (-9.22007e-05 -8.98168e-05 6253.93) (-9.22007e-05 -8.98168e-05 6253.93) (-9.22007e-05 -8.98168e-05 6253.93) (-9.22007e-05 -8.98168e-05 6253.93) (-0.000235278 -0.000233525 6253.64) (-0.000235278 -0.000233525 6253.64) (-0.000235278 -0.000233525 6253.64) (-0.000235278 -0.000233525 6253.64) (-0.000235278 -0.000233525 6253.64)
2150          (-9.22007e-05 -8.98168e-05 6253.93) (-9.22007e-05 -8.98168e-05 6253.93) (-9.22007e-05 -8.98168e-05 6253.93) (-9.22007e-05 -8.98168e-05 6253.93) (-9.22007e-05 -8.98168e-05 6253.93) (-9.22007e-05 -8.98168e-05 6253.93) (-0.000235278 -0.000233525 6253.64) (-0.000235278 -0.000233525 6253.64) (-0.000235278 -0.000233525 6253.64) (-0.000235278 -0.000233525 6253.64) (-0.000235278 -0.000233525 6253.64)
2200          (-9.22007e-05 -8.98168e-05 6253.93) (-9.22007e-05 -8.98168e-05 6253.93) (-9.22007e-05 -8.98168e-05 6253.93) (-9.22007e-05 -8.98168e-05 6253.93) (-9.22007e-05 -8.98168e-05 6253.93) (-9.22007e-05 -8.98168e-05 6253.93) (-0.000235278 -0.000233525 6253.64) (-0.000235278 -0.000233525 6253.64) (-0.000235278 -0.000233525 6253.64) (-0.000235278 -0.000233525 6253.64) (-0.000235278 -0.000233525 6253.64)
2250          (-9.22007e-05 -8.98168e-05 6253.93) (-9.22007e-05 -8.98168e-05 6253.93) (-9.22007e-05 -8.98168e-05 6253.93) (-9.22007e-05 -8.98168e-05 6253.93) (-9.22007e-05 -8.98168e-05 6253.93) (-9.22007e-05 -8.98168e-05 6253.93) (-0.000235278 -0.000233525 6253.64) (-0.000235278 -0.000233525 6253.64) (-0.000235278 -0.000233525 6253.64) (-0.000235278 -0.000233525 6253.64) (-0.000235278 -0.000233525 6253.64)
2300          (-9.22007e-05 -8.98168e-05 6253.93) (-9.22007e-05 -8.98168e-05 6253.93) (-9.22007e-05 -8.98168e-05 6253.93) (-9.22007e-05 -8.98168e-05 6253.93) (-9.22007e-05 -8.98168e-05 6253.93) (-9.22007e-05 -8.98168e-05 6253.93) (-0.000235278 -0.000233525 6253.64) (-0.000235278 -0.000233525 6253.64) (-0.000235278 -0.000233525 6253.64) (-0.000235278 -0.000233525 6253.64) (-0.000235278 -0.000233525 6253.64)
2350          (-9.22007e-05 -8.98168e-05 6253.93) (-9.22007e-05 -8.98168e-05 6253.93) (-9.22007e-05 -8.98168e-05 6253.93) (-9.22007e-05 -8.98168e-05 6253.93) (-9.22007e-05 -8.98168e-05 6253.93) (-9.22007e-05 -8.98168e-05 6253.93) (-0.000235278 -0.000233525 6253.64) (-0.000235278 -0.000233525 6253.64) (-0.000235278 -0.000233525 6253.64) (-0.000235278 -0.000233525 6253.64) (-0.000235278 -0.000233525 6253.64)
2400          (-9.22007e-05 -8.98168e-05 6253.93) (-9.22007e-05 -8.98168e-05 6253.93) (-9.22007e-05 -8.98168e-05 6253.93) (-9.22007e-05 -8.98168e-05 6253.93) (-9.22007e-05 -8.98168e-05 6253.93) (-9.22007e-05 -8.98168e-05 6253.93) (-0.000235278 -0.000233525 6253.64) (-0.000235278 -0.000233525 6253.64) (-0.000235278 -0.000233525 6253.64) (-0.000235278 -0.000233525 6253.64) (-0.000235278 -0.000233525 6253.64)
2450          (-9.22007e-05 -8.98168e-05 6253.93) (-9.22007e-05 -8.98168e-05 6253.93) (-9.22007e-05 -8.98168e-05 6253.93) (-9.22007e-05 -8.98168e-05 6253.93) (-9.22007e-05 -8.98168e-05 6253.93) (-9.22007e-05 -8.98168e-05 6253.93) (-0.000235278 -0.000233525 6253.64) (-0.000235278 -0.000233525 6253.64) (-0.000235278 -0.000233525 6253.64) (-0.000235278 -0.000233525 6253.64) (-0.000235278 -0.000233525 6253.64)
2500          (-9.22007e-05 -8.98168e-05 6253.93) (-9.22007e-05 -8.98168e-05 6253.93) (-9.22007e-05 -8.98168e-05 6253.93) (-9.22007e-05 -8.98168e-05 6253.93) (-9.22007e-05 -8.98168e-05 6253.93) (-9.22007e-05 -8.98168e-05 6253.93) (-0.000235278 -0.000233525 6253.64) (-0.000235278 -0.000233525 6253.64) (-0.000235278 -0.000233525 6253.64) (-0.000235278 -0.000233525 6253.64) (-0.000235278 -0.000233525 6253.64)
2550          (-9.22007e-05 -8.98168e-05 6253.93) (-9.22007e-05 -8.98168e-05 6253.93) (-9.22007e-05 -8.98168e-05 6253.93) (-9.22007e-05 -8.98168e-05 6253.93) (-9.22007e-05 -8.98168e-05 6253.93) (-9.22007e-05 -8.98168e-05 6253.93) (-0.000235278 -0.000233525 6253.64) (-0.000235278 -0.000233525 6253.64) (-0.000235278 -0.000233525 6253.64) (-0.000235278 -0.000233525 6253.64) (-0.000235278 -0.000233525 6253.64)
2600          (-9.22007e-05 -8.98168e-05 6253.93) (-9.22007e-05 -8.98168e-05 6253.93) (-9.22007e-05 -8.98168e-05 6253.93) (-9.22007e-05 -8.98168e-05 6253.93) (-9.22007e-05 -8.98168e-05 6253.93) (-9.22007e-05 -8.98168e-05 6253.93) (-0.000235278 -0.000233525 6253.64) (-0.000235278 -0.000233525 6253.64) (-0.000235278 -0.000233525 6253.64) (-0.000235278 -0.000233525 6253.64) (-0.000235278 -0.000233525 6253.64)
2650          (-9.22007e-05 -8.98168e-05 6253.93) (-9.22007e-05 -8.98168e-05 6253.93) (-9.22007e-05 -8.98168e-05 6253.93) (-9.22007e-05 -8.98168e-05 6253.93) (-9.22007e-05 -8.98168e-05 6253.93) (-9.22007e-05 -8.98168e-05 6253.93) (-0.000235278 -0.000233525 6253.64) (-0.000235278 -0.000233525 6253.64) (-0.000235278 -0.000233525 6253.64) (-0.000235278 -0.000233525 6253.64) (-0.000235278 -0.000233525 6253.64)
2700          (-9.22007e-05 -8.98168e-05 6253.93) (-9.22007e-05 -8.98168e-05 6253.93) (-9.22007e-05 -8.98168e-05 6253.93) (-9.22007e-05 -8.98168e-05 6253.93) (-9.22007e-05 -8.98168e-05 6253.93) (-9.22007e-05 -8.98168e-05 6253.93) (-0.000235278 -0.000233525 6253.64) (-0.000235278 -0.000233525 6253.64) (-0.000235278 -0.000233525 6253.64) (-0.000235278 -0.000233525 6253.64) (-0.000235278 -0.000233525 6253.64)
2750          (-9.22007e-05 -8.98168e-05 6253.93) (-9.22007e-05 -8.98168e-05 6253.93) (-9.22007e-05 -8.98168e-05 6253.93) (-9.22007e-05 -8.98168e-05 6253.93) (-9.22007e-05 -8.98168e-05 6253.93) (-9.22007e-05 -8.98168e-05 6253.93) (-0.000235278 -0.000233525 6253.64) (-0.000235278 -0.000233525 6253.64) (-0.000235278 -0.000233525 6253.64) (-0.000235278 -0.000233525 6253.64) (-0.000235278 -0.000233525 6253.64)
2800          (-9.22007e-05 -8.98168e-05 6253.93) (-9.22007e-05 -8.98168e-05 6253.93) (-9.22007e-05 -8.98168e-05 6253.93) (-9.22007e-05 -8.98168e-05 6253.93) (-9.22007e-05 -8.98168e-05 6253.93) (-9.22007e-05 -8.98168e-05 6253.93) (-0.000235278 -0.000233525 6253.64) (-0.000235278 -0.000233525 6253.64) (-0.000235278 -0.000233525 6253.64) (-0.000235278 -0.000233525 6253.64) (-0.000235278 -0.000233525 6253.64)
2850          (-9.22007e-05 -8.98168e-05 6253.93) (-9.22007e-05 -8.98168e-05 6253.93) (-9.22007e-05 -8.98168e-05 6253.93) (-9.22007e-05 -8.98168e-05 6253.93) (-9.22007e-05 -8.98168e-05 6253.93) (-9.22007e-05 -8.98168e-05 6253.93) (-0.000235278 -0.000233525 6253.64) (-0.000235278 -0.000233525 6253.64) (-0.000235278 -0.000233525 6253.64) (-0.000235278 -0.000233525 6253.64) (-0.000235278 -0.000233525 6253.64)
2900          (-9.22007e-05 -8.98168e-05 6253.93) (-9.22007e-05 -8.98168e-05 6253.93) (-9.22007e-05 -8.98168e-05 6253.93) (-9.22007e-05 -8.98168e-05 6253.93) (-9.22007e-05 -8.98168e-05 6253.93) (-9.22007e-05 -8.98168e-05 6253.93) (-0.000235278 -0.000233525 6253.64) (-0.000235278 -0.000233525 6253.64) (-0.000235278 -0.000233525 6253.64) (-0.000235278 -0.000233525 6253.64) (-0.000235278 -0.000233525 6253.64)
2950          (-9.22007e-05 -8.98168e-05 6253.93) (-9.22007e-05 -8.98168e-05 6253.93) (-9.22007e-05 -8.98168e-05 6253.93) (-9.22007e-05 -8.98168e-05 6253.93) (-9.22007e-05 -8.98168e-05 6253.93) (-9.22007e-05 -8.98168e-05 6253.93) (-0.000235278 -0.000233525 6253.64) (-0.000235278 -0.000233525 6253.64) (-0.000235278 -0.000233525 6253.64) (-0.000235278 -0.000233525 6253.64) (-0.000235278 -0.000233525 6253.64)
3000          (-9.22007e-05 -8.98168e-05 6253.93) (-9.22007e-05 -8.98168e-05 6253.93) (-9.22007e-05 -8.98168e-05 6253.93) (-9.22007e-05 -8.98168e-05 6253.93) (-9.22007e-05 -8.98168e-05 6253.93) (-9.22007e-05 -8.98168e-05 6253.93) (-0.000235278 -0.000233525 6253.64) (-0.000235278 -0.000233525 6253.64) (-0.000235278 -0.000233525 6253.64) (-0.000235278 -0.000233525 6253.64) (-0.000235278 -0.000233525 6253.64)
3050          (-9.22007e-05 -8.98168e-05 6253.93) (-9.22007e-05 -8.98168e-05 6253.93) (-9.22007e-05 -8.98168e-05 6253.93) (-9.22007e-05 -8.98168e-05 6253.93) (-9.22007e-05 -8.98168e-05 6253.93) (-9.22007e-05 -8.98168e-05 6253.93) (-0.000235278 -0.000233525 6253.64) (-0.000235278 -0.000233525 6253.64) (-0.000235278 -0.000233525 6253.64) (-0.000235278 -0.000233525 6253.64) (-0.000235278 -0.000233525 6253.64)
3100          (-9.22007e-05 -8.98168e-05 6253.93) (-9.22007e-05 -8.98168e-05 6253.93) (-9.22007e-05 -8.98168e-05 6253.93) (-9.22007e-05 -8.98168e-05 6253.93) (-9.22007e-05 -8.98168e-05 6253.93) (-9.22007e-05 -8.98168e-05 6253.93) (-0.000235278 -0.000233525 6253.64) (-0.000235278 -0.000233525 6253.64) (-0.000235278 -0.000233525 6253.64) (-0.000235278 -0.000233525 6253.64) (-0.000235278 -0.000233525 6253.64)
3150          (-9.22007e-05 -8.98168e-05 6253.93) (-9.22007e-05 -8.98168e-05 6253.93) (-9.22007e-05 -8.98168e-05 6253.93) (-9.22007e-05 -8.98168e-05 6253.93) (-9.22007e-05 -8.98168e-05 6253.93) (-9.22007e-05 -8.98168e-05 6253.93) (-0.000235278 -0.000233525 6253.64) (-0.000235278 -0.000233525 6253.64) (-0.000235278 -0.000233525 6253.64) (-0.000235278 -0.000233525 6253.64) (-0.000235278 -0.000233525 6253.64)
3200          (-9.22007e-05 -8.98168e-05 6253.93) (-9.22007e-05 -8.98168e-05 6253.93) (-9.22007e-05 -8.98168e-05 6253.93) (-9.22007e-05 -8.98168e-05 6253.93) (-9.22007e-05 -8.98168e-05 6253.93) (-9.22007e-05 -8.98168e-05 6253.93) (-0.000235278 -0.000233525 6253.64) (-0.000235278 -0.000233525 6253.64) (-0.000235278 -0.000233525 6253.64) (-0.000235278 -0.000233525 6253.64) (-0.000235278 -0.000233525 6253.64)
3250          (-9.22007e-05 -8.98168e-05 6253.93) (-9.22007e-05 -8.98168e-05 6253.93) (-9.22007e-05 -8.98168e-05 6253.93) (-9.22007e-05 -8.98168e-05 6253.93) (-9.22007e-05 -8.98168e-05 6253.93) (-9.22007e-05 -8.98168e-05 6253.93) (-0.000235278 -0.000233525 6253.64) (-0.000235278 -0.000233525 6253.64) (-0.000235278 -0.000233525 6253.64) (-0.000235278 -0.000233525 6253.64) (-0.000235278 -0.000233525 6253.64)
3300          (-9.22007e-05 -8.98168e-05 6253.93) (-9.22007e-05 -8.98168e-05 6253.93) (-9.22007e-05 -8.98168e-05 6253.93) (-9.22007e-05 -8.98168e-05 6253.93) (-9.22007e-05 -8.98168e-05 6253.93) (-9.22007e-05 -8.98168e-05 6253.93) (-0.000235278 -0.000233525 6253.64) (-0.000235278 -0.000233525 6253.64) (-0.000235278 -0.000233525 6253.64) (-0.000235278 -0.000233525 6253.64) (-0.000235278 -0.000233525 6253.64)
3350          (-9.22007e-05 -8.98168e-05 6253.93) (-9.22007e-05 -8.98168e-05 6253.93) (-9.22007e-05 -8.98168e-05 6253.93) (-9.22007e-05 -8.98168e-05 6253.93) (-9.22007e-05 -8.98168e-05 6253.93) (-9.22007e-05 -8.98168e-05 6253.93) (-0.000235278 -0.000233525 6253.64) (-0.000235278 -0.000233525 6253.64) (-0.000235278 -0.000233525 6253.64) (-0.000235278 -0.000233525 6253.64) (-0.000235278 -0.000233525 6253.64)
3400          (-9.22007e-05 -8.98168e-05 6253.93) (-9.22007e-05 -8.98168e-05 6253.93) (-9.22007e-05 -8.98168e-05 6253.93) (-9.22007e-05 -8.98168e-05 6253.93) (-9.22007e-05 -8.98168e-05 6253.93) (-9.22007e-05 -8.98168e-05 6253.93) (-0.000235278 -0.000233525 6253.64) (-0.000235278 -0.000233525 6253.64) (-0.000235278 -0.000233525 6253.64) (-0.000235278 -0.000233525 6253.64) (-0.000235278 -0.000233525 6253.64)
3450          (-9.22007e-05 -8.98168e-05 6253.93) (-9.22007e-05 -8.98168e-05 6253.93) (-9.22007e-05 -8.98168e-05 6253.93) (-9.22007e-05 -8.98168e-05 6253.93) (-9.22007e-05 -8.98168e-05 6253.93) (-9.22007e-05 -8.98168e-05 6253.93) (-0.000235278 -0.000233525 6253.64) (-0.000235278 -0.000233525 6253.64) (-0.000235278 -0.000233525 6253.64) (-0.000235278 -0.000233525 6253.64) (-0.000235278 -0.000233525 6253.64)
3500          (-9.22007e-05 -8.98168e-05 6253.93) (-9.22007e-05 -8.98168e-05 6253.93) (-9.22007e-05 -8.98168e-05 6253.93) (-9.22007e-05 -8.98168e-05 6253.93) (-9.22007e-05 -8.98168e-05 6253.93) (-9.22007e-05 -8.98168e-05 6253.93) (-0.000235278 -0.000233525 6253.64) (-0.000235278 -0.000233525 6253.64) (-0.000235278 -0.000233525 6253.64) (-0.000235278 -0.000233525 6253.64) (-0.000235278 -0.000233525 6253.64)
3550          (-9.22007e-05 -8.98168e-05 6253.93) (-9.22007e-05 -8.98168e-05 6253.93) (-9.22007e-05 -8.98168e-05 6253.93) (-9.22007e-05 -8.98168e-05 6253.93) (-9.22007e-05 -8.98168e-05 6253.93) (-9.22007e-05 -8.98168e-05 6253.93) (-0.000235278 -0.000233525 6253.64) (-0.000235278 -0.000233525 6253.64) (-0.000235278 -0.000233525 6253.64) (-0.000235278 -0.000233525 6253.64) (-0.000235278 -0.000233525 6253.64)
3600          (-9.22007e-05 -8.98168e-05 6253.93) (-9.22007e-05 -8.98168e-05 6253.93) (-9.22007e-05 -8.98168e-05 6253.93) (-9.22007e-05 -8.98168e-05 6253.93) (-9.22007e-05 -8.98168e-05 6253.93) (-9.22007e-05 -8.98168e-05 6253.93) (-0.000235278 -0.000233525 6253.64) (-0.000235278 -0.000233525 6253.64) (-0.000235278 -0.000233525 6253.64) (-0.000235278 -0.000233525 6253.64) (-0.000235278 -0.000233525 6253.64)