LIGGGHTS data file 

3786 atoms

1 atom types

0.0   0.006 xlo xhi
0.0   0.02 ylo yhi
0.006 0.068 zlo zhi


Atoms

1	1	 0.001	2500	0.0005	0.0005	0.0065
2	1	 0.001	2500	0.0015	0.0005	0.0065
3	1	 0.001	2500	0.0025	0.0005	0.0065
4	1	 0.001	2500	0.0035	0.0005	0.0065
5	1	 0.001	2500	0.0045	0.0005	0.0065
6	1	 0.001	2500	0.0055	0.0005	0.0065
7	1	 0.001	2500	0.0005	0.0005	0.0075
8	1	 0.001	2500	0.0015	0.0005	0.0075
9	1	 0.001	2500	0.0025	0.0005	0.0075
10	1	 0.001	2500	0.0035	0.0005	0.0075
11	1	 0.001	2500	0.0045	0.0005	0.0075
12	1	 0.001	2500	0.0055	0.0005	0.0075
13	1	 0.001	2500	0.0005	0.0005	0.0085
14	1	 0.001	2500	0.0015	0.0005	0.0085
15	1	 0.001	2500	0.0025	0.0005	0.0085
16	1	 0.001	2500	0.0035	0.0005	0.0085
17	1	 0.001	2500	0.0045	0.0005	0.0085
18	1	 0.001	2500	0.0055	0.0005	0.0085
19	1	 0.001	2500	0.0005	0.0005	0.0095
20	1	 0.001	2500	0.0015	0.0005	0.0095
21	1	 0.001	2500	0.0025	0.0005	0.0095
22	1	 0.001	2500	0.0035	0.0005	0.0095
23	1	 0.001	2500	0.0045	0.0005	0.0095
24	1	 0.001	2500	0.0055	0.0005	0.0095
25	1	 0.001	2500	0.0005	0.0015	0.0095
26	1	 0.001	2500	0.0015	0.0015	0.0095
27	1	 0.001	2500	0.0025	0.0015	0.0095
28	1	 0.001	2500	0.0035	0.0015	0.0095
29	1	 0.001	2500	0.0045	0.0015	0.0095
30	1	 0.001	2500	0.0055	0.0015	0.0095
31	1	 0.001	2500	0.0005	0.0005	0.0105
32	1	 0.001	2500	0.0015	0.0005	0.0105
33	1	 0.001	2500	0.0025	0.0005	0.0105
34	1	 0.001	2500	0.0035	0.0005	0.0105
35	1	 0.001	2500	0.0045	0.0005	0.0105
36	1	 0.001	2500	0.0055	0.0005	0.0105
37	1	 0.001	2500	0.0005	0.0015	0.0105
38	1	 0.001	2500	0.0015	0.0015	0.0105
39	1	 0.001	2500	0.0025	0.0015	0.0105
40	1	 0.001	2500	0.0035	0.0015	0.0105
41	1	 0.001	2500	0.0045	0.0015	0.0105
42	1	 0.001	2500	0.0055	0.0015	0.0105
43	1	 0.001	2500	0.0005	0.0005	0.0115
44	1	 0.001	2500	0.0015	0.0005	0.0115
45	1	 0.001	2500	0.0025	0.0005	0.0115
46	1	 0.001	2500	0.0035	0.0005	0.0115
47	1	 0.001	2500	0.0045	0.0005	0.0115
48	1	 0.001	2500	0.0055	0.0005	0.0115
49	1	 0.001	2500	0.0005	0.0015	0.0115
50	1	 0.001	2500	0.0015	0.0015	0.0115
51	1	 0.001	2500	0.0025	0.0015	0.0115
52	1	 0.001	2500	0.0035	0.0015	0.0115
53	1	 0.001	2500	0.0045	0.0015	0.0115
54	1	 0.001	2500	0.0055	0.0015	0.0115
55	1	 0.001	2500	0.0005	0.0005	0.0125
56	1	 0.001	2500	0.0015	0.0005	0.0125
57	1	 0.001	2500	0.0025	0.0005	0.0125
58	1	 0.001	2500	0.0035	0.0005	0.0125
59	1	 0.001	2500	0.0045	0.0005	0.0125
60	1	 0.001	2500	0.0055	0.0005	0.0125
61	1	 0.001	2500	0.0005	0.0015	0.0125
62	1	 0.001	2500	0.0015	0.0015	0.0125
63	1	 0.001	2500	0.0025	0.0015	0.0125
64	1	 0.001	2500	0.0035	0.0015	0.0125
65	1	 0.001	2500	0.0045	0.0015	0.0125
66	1	 0.001	2500	0.0055	0.0015	0.0125
67	1	 0.001	2500	0.0005	0.0025	0.0125
68	1	 0.001	2500	0.0015	0.0025	0.0125
69	1	 0.001	2500	0.0025	0.0025	0.0125
70	1	 0.001	2500	0.0035	0.0025	0.0125
71	1	 0.001	2500	0.0045	0.0025	0.0125
72	1	 0.001	2500	0.0055	0.0025	0.0125
73	1	 0.001	2500	0.0005	0.0005	0.0135
74	1	 0.001	2500	0.0015	0.0005	0.0135
75	1	 0.001	2500	0.0025	0.0005	0.0135
76	1	 0.001	2500	0.0035	0.0005	0.0135
77	1	 0.001	2500	0.0045	0.0005	0.0135
78	1	 0.001	2500	0.0055	0.0005	0.0135
79	1	 0.001	2500	0.0005	0.0015	0.0135
80	1	 0.001	2500	0.0015	0.0015	0.0135
81	1	 0.001	2500	0.0025	0.0015	0.0135
82	1	 0.001	2500	0.0035	0.0015	0.0135
83	1	 0.001	2500	0.0045	0.0015	0.0135
84	1	 0.001	2500	0.0055	0.0015	0.0135
85	1	 0.001	2500	0.0005	0.0025	0.0135
86	1	 0.001	2500	0.0015	0.0025	0.0135
87	1	 0.001	2500	0.0025	0.0025	0.0135
88	1	 0.001	2500	0.0035	0.0025	0.0135
89	1	 0.001	2500	0.0045	0.0025	0.0135
90	1	 0.001	2500	0.0055	0.0025	0.0135
91	1	 0.001	2500	0.0005	0.0005	0.0145
92	1	 0.001	2500	0.0015	0.0005	0.0145
93	1	 0.001	2500	0.0025	0.0005	0.0145
94	1	 0.001	2500	0.0035	0.0005	0.0145
95	1	 0.001	2500	0.0045	0.0005	0.0145
96	1	 0.001	2500	0.0055	0.0005	0.0145
97	1	 0.001	2500	0.0005	0.0015	0.0145
98	1	 0.001	2500	0.0015	0.0015	0.0145
99	1	 0.001	2500	0.0025	0.0015	0.0145
100	1	 0.001	2500	0.0035	0.0015	0.0145
101	1	 0.001	2500	0.0045	0.0015	0.0145
102	1	 0.001	2500	0.0055	0.0015	0.0145
103	1	 0.001	2500	0.0005	0.0025	0.0145
104	1	 0.001	2500	0.0015	0.0025	0.0145
105	1	 0.001	2500	0.0025	0.0025	0.0145
106	1	 0.001	2500	0.0035	0.0025	0.0145
107	1	 0.001	2500	0.0045	0.0025	0.0145
108	1	 0.001	2500	0.0055	0.0025	0.0145
109	1	 0.001	2500	0.0005	0.0035	0.0145
110	1	 0.001	2500	0.0015	0.0035	0.0145
111	1	 0.001	2500	0.0025	0.0035	0.0145
112	1	 0.001	2500	0.0035	0.0035	0.0145
113	1	 0.001	2500	0.0045	0.0035	0.0145
114	1	 0.001	2500	0.0055	0.0035	0.0145
115	1	 0.001	2500	0.0005	0.0005	0.0155
116	1	 0.001	2500	0.0015	0.0005	0.0155
117	1	 0.001	2500	0.0025	0.0005	0.0155
118	1	 0.001	2500	0.0035	0.0005	0.0155
119	1	 0.001	2500	0.0045	0.0005	0.0155
120	1	 0.001	2500	0.0055	0.0005	0.0155
121	1	 0.001	2500	0.0005	0.0015	0.0155
122	1	 0.001	2500	0.0015	0.0015	0.0155
123	1	 0.001	2500	0.0025	0.0015	0.0155
124	1	 0.001	2500	0.0035	0.0015	0.0155
125	1	 0.001	2500	0.0045	0.0015	0.0155
126	1	 0.001	2500	0.0055	0.0015	0.0155
127	1	 0.001	2500	0.0005	0.0025	0.0155
128	1	 0.001	2500	0.0015	0.0025	0.0155
129	1	 0.001	2500	0.0025	0.0025	0.0155
130	1	 0.001	2500	0.0035	0.0025	0.0155
131	1	 0.001	2500	0.0045	0.0025	0.0155
132	1	 0.001	2500	0.0055	0.0025	0.0155
133	1	 0.001	2500	0.0005	0.0035	0.0155
134	1	 0.001	2500	0.0015	0.0035	0.0155
135	1	 0.001	2500	0.0025	0.0035	0.0155
136	1	 0.001	2500	0.0035	0.0035	0.0155
137	1	 0.001	2500	0.0045	0.0035	0.0155
138	1	 0.001	2500	0.0055	0.0035	0.0155
139	1	 0.001	2500	0.0005	0.0005	0.0165
140	1	 0.001	2500	0.0015	0.0005	0.0165
141	1	 0.001	2500	0.0025	0.0005	0.0165
142	1	 0.001	2500	0.0035	0.0005	0.0165
143	1	 0.001	2500	0.0045	0.0005	0.0165
144	1	 0.001	2500	0.0055	0.0005	0.0165
145	1	 0.001	2500	0.0005	0.0015	0.0165
146	1	 0.001	2500	0.0015	0.0015	0.0165
147	1	 0.001	2500	0.0025	0.0015	0.0165
148	1	 0.001	2500	0.0035	0.0015	0.0165
149	1	 0.001	2500	0.0045	0.0015	0.0165
150	1	 0.001	2500	0.0055	0.0015	0.0165
151	1	 0.001	2500	0.0005	0.0025	0.0165
152	1	 0.001	2500	0.0015	0.0025	0.0165
153	1	 0.001	2500	0.0025	0.0025	0.0165
154	1	 0.001	2500	0.0035	0.0025	0.0165
155	1	 0.001	2500	0.0045	0.0025	0.0165
156	1	 0.001	2500	0.0055	0.0025	0.0165
157	1	 0.001	2500	0.0005	0.0035	0.0165
158	1	 0.001	2500	0.0015	0.0035	0.0165
159	1	 0.001	2500	0.0025	0.0035	0.0165
160	1	 0.001	2500	0.0035	0.0035	0.0165
161	1	 0.001	2500	0.0045	0.0035	0.0165
162	1	 0.001	2500	0.0055	0.0035	0.0165
163	1	 0.001	2500	0.0005	0.0005	0.0175
164	1	 0.001	2500	0.0015	0.0005	0.0175
165	1	 0.001	2500	0.0025	0.0005	0.0175
166	1	 0.001	2500	0.0035	0.0005	0.0175
167	1	 0.001	2500	0.0045	0.0005	0.0175
168	1	 0.001	2500	0.0055	0.0005	0.0175
169	1	 0.001	2500	0.0005	0.0015	0.0175
170	1	 0.001	2500	0.0015	0.0015	0.0175
171	1	 0.001	2500	0.0025	0.0015	0.0175
172	1	 0.001	2500	0.0035	0.0015	0.0175
173	1	 0.001	2500	0.0045	0.0015	0.0175
174	1	 0.001	2500	0.0055	0.0015	0.0175
175	1	 0.001	2500	0.0005	0.0025	0.0175
176	1	 0.001	2500	0.0015	0.0025	0.0175
177	1	 0.001	2500	0.0025	0.0025	0.0175
178	1	 0.001	2500	0.0035	0.0025	0.0175
179	1	 0.001	2500	0.0045	0.0025	0.0175
180	1	 0.001	2500	0.0055	0.0025	0.0175
181	1	 0.001	2500	0.0005	0.0035	0.0175
182	1	 0.001	2500	0.0015	0.0035	0.0175
183	1	 0.001	2500	0.0025	0.0035	0.0175
184	1	 0.001	2500	0.0035	0.0035	0.0175
185	1	 0.001	2500	0.0045	0.0035	0.0175
186	1	 0.001	2500	0.0055	0.0035	0.0175
187	1	 0.001	2500	0.0005	0.0045	0.0175
188	1	 0.001	2500	0.0015	0.0045	0.0175
189	1	 0.001	2500	0.0025	0.0045	0.0175
190	1	 0.001	2500	0.0035	0.0045	0.0175
191	1	 0.001	2500	0.0045	0.0045	0.0175
192	1	 0.001	2500	0.0055	0.0045	0.0175
193	1	 0.001	2500	0.0005	0.0005	0.0185
194	1	 0.001	2500	0.0015	0.0005	0.0185
195	1	 0.001	2500	0.0025	0.0005	0.0185
196	1	 0.001	2500	0.0035	0.0005	0.0185
197	1	 0.001	2500	0.0045	0.0005	0.0185
198	1	 0.001	2500	0.0055	0.0005	0.0185
199	1	 0.001	2500	0.0005	0.0015	0.0185
200	1	 0.001	2500	0.0015	0.0015	0.0185
201	1	 0.001	2500	0.0025	0.0015	0.0185
202	1	 0.001	2500	0.0035	0.0015	0.0185
203	1	 0.001	2500	0.0045	0.0015	0.0185
204	1	 0.001	2500	0.0055	0.0015	0.0185
205	1	 0.001	2500	0.0005	0.0025	0.0185
206	1	 0.001	2500	0.0015	0.0025	0.0185
207	1	 0.001	2500	0.0025	0.0025	0.0185
208	1	 0.001	2500	0.0035	0.0025	0.0185
209	1	 0.001	2500	0.0045	0.0025	0.0185
210	1	 0.001	2500	0.0055	0.0025	0.0185
211	1	 0.001	2500	0.0005	0.0035	0.0185
212	1	 0.001	2500	0.0015	0.0035	0.0185
213	1	 0.001	2500	0.0025	0.0035	0.0185
214	1	 0.001	2500	0.0035	0.0035	0.0185
215	1	 0.001	2500	0.0045	0.0035	0.0185
216	1	 0.001	2500	0.0055	0.0035	0.0185
217	1	 0.001	2500	0.0005	0.0045	0.0185
218	1	 0.001	2500	0.0015	0.0045	0.0185
219	1	 0.001	2500	0.0025	0.0045	0.0185
220	1	 0.001	2500	0.0035	0.0045	0.0185
221	1	 0.001	2500	0.0045	0.0045	0.0185
222	1	 0.001	2500	0.0055	0.0045	0.0185
223	1	 0.001	2500	0.0005	0.0005	0.0195
224	1	 0.001	2500	0.0015	0.0005	0.0195
225	1	 0.001	2500	0.0025	0.0005	0.0195
226	1	 0.001	2500	0.0035	0.0005	0.0195
227	1	 0.001	2500	0.0045	0.0005	0.0195
228	1	 0.001	2500	0.0055	0.0005	0.0195
229	1	 0.001	2500	0.0005	0.0015	0.0195
230	1	 0.001	2500	0.0015	0.0015	0.0195
231	1	 0.001	2500	0.0025	0.0015	0.0195
232	1	 0.001	2500	0.0035	0.0015	0.0195
233	1	 0.001	2500	0.0045	0.0015	0.0195
234	1	 0.001	2500	0.0055	0.0015	0.0195
235	1	 0.001	2500	0.0005	0.0025	0.0195
236	1	 0.001	2500	0.0015	0.0025	0.0195
237	1	 0.001	2500	0.0025	0.0025	0.0195
238	1	 0.001	2500	0.0035	0.0025	0.0195
239	1	 0.001	2500	0.0045	0.0025	0.0195
240	1	 0.001	2500	0.0055	0.0025	0.0195
241	1	 0.001	2500	0.0005	0.0035	0.0195
242	1	 0.001	2500	0.0015	0.0035	0.0195
243	1	 0.001	2500	0.0025	0.0035	0.0195
244	1	 0.001	2500	0.0035	0.0035	0.0195
245	1	 0.001	2500	0.0045	0.0035	0.0195
246	1	 0.001	2500	0.0055	0.0035	0.0195
247	1	 0.001	2500	0.0005	0.0045	0.0195
248	1	 0.001	2500	0.0015	0.0045	0.0195
249	1	 0.001	2500	0.0025	0.0045	0.0195
250	1	 0.001	2500	0.0035	0.0045	0.0195
251	1	 0.001	2500	0.0045	0.0045	0.0195
252	1	 0.001	2500	0.0055	0.0045	0.0195
253	1	 0.001	2500	0.0005	0.0055	0.0195
254	1	 0.001	2500	0.0015	0.0055	0.0195
255	1	 0.001	2500	0.0025	0.0055	0.0195
256	1	 0.001	2500	0.0035	0.0055	0.0195
257	1	 0.001	2500	0.0045	0.0055	0.0195
258	1	 0.001	2500	0.0055	0.0055	0.0195
259	1	 0.001	2500	0.0005	0.0005	0.0205
260	1	 0.001	2500	0.0015	0.0005	0.0205
261	1	 0.001	2500	0.0025	0.0005	0.0205
262	1	 0.001	2500	0.0035	0.0005	0.0205
263	1	 0.001	2500	0.0045	0.0005	0.0205
264	1	 0.001	2500	0.0055	0.0005	0.0205
265	1	 0.001	2500	0.0005	0.0015	0.0205
266	1	 0.001	2500	0.0015	0.0015	0.0205
267	1	 0.001	2500	0.0025	0.0015	0.0205
268	1	 0.001	2500	0.0035	0.0015	0.0205
269	1	 0.001	2500	0.0045	0.0015	0.0205
270	1	 0.001	2500	0.0055	0.0015	0.0205
271	1	 0.001	2500	0.0005	0.0025	0.0205
272	1	 0.001	2500	0.0015	0.0025	0.0205
273	1	 0.001	2500	0.0025	0.0025	0.0205
274	1	 0.001	2500	0.0035	0.0025	0.0205
275	1	 0.001	2500	0.0045	0.0025	0.0205
276	1	 0.001	2500	0.0055	0.0025	0.0205
277	1	 0.001	2500	0.0005	0.0035	0.0205
278	1	 0.001	2500	0.0015	0.0035	0.0205
279	1	 0.001	2500	0.0025	0.0035	0.0205
280	1	 0.001	2500	0.0035	0.0035	0.0205
281	1	 0.001	2500	0.0045	0.0035	0.0205
282	1	 0.001	2500	0.0055	0.0035	0.0205
283	1	 0.001	2500	0.0005	0.0045	0.0205
284	1	 0.001	2500	0.0015	0.0045	0.0205
285	1	 0.001	2500	0.0025	0.0045	0.0205
286	1	 0.001	2500	0.0035	0.0045	0.0205
287	1	 0.001	2500	0.0045	0.0045	0.0205
288	1	 0.001	2500	0.0055	0.0045	0.0205
289	1	 0.001	2500	0.0005	0.0055	0.0205
290	1	 0.001	2500	0.0015	0.0055	0.0205
291	1	 0.001	2500	0.0025	0.0055	0.0205
292	1	 0.001	2500	0.0035	0.0055	0.0205
293	1	 0.001	2500	0.0045	0.0055	0.0205
294	1	 0.001	2500	0.0055	0.0055	0.0205
295	1	 0.001	2500	0.0005	0.0005	0.0215
296	1	 0.001	2500	0.0015	0.0005	0.0215
297	1	 0.001	2500	0.0025	0.0005	0.0215
298	1	 0.001	2500	0.0035	0.0005	0.0215
299	1	 0.001	2500	0.0045	0.0005	0.0215
300	1	 0.001	2500	0.0055	0.0005	0.0215
301	1	 0.001	2500	0.0005	0.0015	0.0215
302	1	 0.001	2500	0.0015	0.0015	0.0215
303	1	 0.001	2500	0.0025	0.0015	0.0215
304	1	 0.001	2500	0.0035	0.0015	0.0215
305	1	 0.001	2500	0.0045	0.0015	0.0215
306	1	 0.001	2500	0.0055	0.0015	0.0215
307	1	 0.001	2500	0.0005	0.0025	0.0215
308	1	 0.001	2500	0.0015	0.0025	0.0215
309	1	 0.001	2500	0.0025	0.0025	0.0215
310	1	 0.001	2500	0.0035	0.0025	0.0215
311	1	 0.001	2500	0.0045	0.0025	0.0215
312	1	 0.001	2500	0.0055	0.0025	0.0215
313	1	 0.001	2500	0.0005	0.0035	0.0215
314	1	 0.001	2500	0.0015	0.0035	0.0215
315	1	 0.001	2500	0.0025	0.0035	0.0215
316	1	 0.001	2500	0.0035	0.0035	0.0215
317	1	 0.001	2500	0.0045	0.0035	0.0215
318	1	 0.001	2500	0.0055	0.0035	0.0215
319	1	 0.001	2500	0.0005	0.0045	0.0215
320	1	 0.001	2500	0.0015	0.0045	0.0215
321	1	 0.001	2500	0.0025	0.0045	0.0215
322	1	 0.001	2500	0.0035	0.0045	0.0215
323	1	 0.001	2500	0.0045	0.0045	0.0215
324	1	 0.001	2500	0.0055	0.0045	0.0215
325	1	 0.001	2500	0.0005	0.0055	0.0215
326	1	 0.001	2500	0.0015	0.0055	0.0215
327	1	 0.001	2500	0.0025	0.0055	0.0215
328	1	 0.001	2500	0.0035	0.0055	0.0215
329	1	 0.001	2500	0.0045	0.0055	0.0215
330	1	 0.001	2500	0.0055	0.0055	0.0215
331	1	 0.001	2500	0.0005	0.0005	0.0225
332	1	 0.001	2500	0.0015	0.0005	0.0225
333	1	 0.001	2500	0.0025	0.0005	0.0225
334	1	 0.001	2500	0.0035	0.0005	0.0225
335	1	 0.001	2500	0.0045	0.0005	0.0225
336	1	 0.001	2500	0.0055	0.0005	0.0225
337	1	 0.001	2500	0.0005	0.0015	0.0225
338	1	 0.001	2500	0.0015	0.0015	0.0225
339	1	 0.001	2500	0.0025	0.0015	0.0225
340	1	 0.001	2500	0.0035	0.0015	0.0225
341	1	 0.001	2500	0.0045	0.0015	0.0225
342	1	 0.001	2500	0.0055	0.0015	0.0225
343	1	 0.001	2500	0.0005	0.0025	0.0225
344	1	 0.001	2500	0.0015	0.0025	0.0225
345	1	 0.001	2500	0.0025	0.0025	0.0225
346	1	 0.001	2500	0.0035	0.0025	0.0225
347	1	 0.001	2500	0.0045	0.0025	0.0225
348	1	 0.001	2500	0.0055	0.0025	0.0225
349	1	 0.001	2500	0.0005	0.0035	0.0225
350	1	 0.001	2500	0.0015	0.0035	0.0225
351	1	 0.001	2500	0.0025	0.0035	0.0225
352	1	 0.001	2500	0.0035	0.0035	0.0225
353	1	 0.001	2500	0.0045	0.0035	0.0225
354	1	 0.001	2500	0.0055	0.0035	0.0225
355	1	 0.001	2500	0.0005	0.0045	0.0225
356	1	 0.001	2500	0.0015	0.0045	0.0225
357	1	 0.001	2500	0.0025	0.0045	0.0225
358	1	 0.001	2500	0.0035	0.0045	0.0225
359	1	 0.001	2500	0.0045	0.0045	0.0225
360	1	 0.001	2500	0.0055	0.0045	0.0225
361	1	 0.001	2500	0.0005	0.0055	0.0225
362	1	 0.001	2500	0.0015	0.0055	0.0225
363	1	 0.001	2500	0.0025	0.0055	0.0225
364	1	 0.001	2500	0.0035	0.0055	0.0225
365	1	 0.001	2500	0.0045	0.0055	0.0225
366	1	 0.001	2500	0.0055	0.0055	0.0225
367	1	 0.001	2500	0.0005	0.0065	0.0225
368	1	 0.001	2500	0.0015	0.0065	0.0225
369	1	 0.001	2500	0.0025	0.0065	0.0225
370	1	 0.001	2500	0.0035	0.0065	0.0225
371	1	 0.001	2500	0.0045	0.0065	0.0225
372	1	 0.001	2500	0.0055	0.0065	0.0225
373	1	 0.001	2500	0.0005	0.0005	0.0235
374	1	 0.001	2500	0.0015	0.0005	0.0235
375	1	 0.001	2500	0.0025	0.0005	0.0235
376	1	 0.001	2500	0.0035	0.0005	0.0235
377	1	 0.001	2500	0.0045	0.0005	0.0235
378	1	 0.001	2500	0.0055	0.0005	0.0235
379	1	 0.001	2500	0.0005	0.0015	0.0235
380	1	 0.001	2500	0.0015	0.0015	0.0235
381	1	 0.001	2500	0.0025	0.0015	0.0235
382	1	 0.001	2500	0.0035	0.0015	0.0235
383	1	 0.001	2500	0.0045	0.0015	0.0235
384	1	 0.001	2500	0.0055	0.0015	0.0235
385	1	 0.001	2500	0.0005	0.0025	0.0235
386	1	 0.001	2500	0.0015	0.0025	0.0235
387	1	 0.001	2500	0.0025	0.0025	0.0235
388	1	 0.001	2500	0.0035	0.0025	0.0235
389	1	 0.001	2500	0.0045	0.0025	0.0235
390	1	 0.001	2500	0.0055	0.0025	0.0235
391	1	 0.001	2500	0.0005	0.0035	0.0235
392	1	 0.001	2500	0.0015	0.0035	0.0235
393	1	 0.001	2500	0.0025	0.0035	0.0235
394	1	 0.001	2500	0.0035	0.0035	0.0235
395	1	 0.001	2500	0.0045	0.0035	0.0235
396	1	 0.001	2500	0.0055	0.0035	0.0235
397	1	 0.001	2500	0.0005	0.0045	0.0235
398	1	 0.001	2500	0.0015	0.0045	0.0235
399	1	 0.001	2500	0.0025	0.0045	0.0235
400	1	 0.001	2500	0.0035	0.0045	0.0235
401	1	 0.001	2500	0.0045	0.0045	0.0235
402	1	 0.001	2500	0.0055	0.0045	0.0235
403	1	 0.001	2500	0.0005	0.0055	0.0235
404	1	 0.001	2500	0.0015	0.0055	0.0235
405	1	 0.001	2500	0.0025	0.0055	0.0235
406	1	 0.001	2500	0.0035	0.0055	0.0235
407	1	 0.001	2500	0.0045	0.0055	0.0235
408	1	 0.001	2500	0.0055	0.0055	0.0235
409	1	 0.001	2500	0.0005	0.0065	0.0235
410	1	 0.001	2500	0.0015	0.0065	0.0235
411	1	 0.001	2500	0.0025	0.0065	0.0235
412	1	 0.001	2500	0.0035	0.0065	0.0235
413	1	 0.001	2500	0.0045	0.0065	0.0235
414	1	 0.001	2500	0.0055	0.0065	0.0235
415	1	 0.001	2500	0.0005	0.0005	0.0245
416	1	 0.001	2500	0.0015	0.0005	0.0245
417	1	 0.001	2500	0.0025	0.0005	0.0245
418	1	 0.001	2500	0.0035	0.0005	0.0245
419	1	 0.001	2500	0.0045	0.0005	0.0245
420	1	 0.001	2500	0.0055	0.0005	0.0245
421	1	 0.001	2500	0.0005	0.0015	0.0245
422	1	 0.001	2500	0.0015	0.0015	0.0245
423	1	 0.001	2500	0.0025	0.0015	0.0245
424	1	 0.001	2500	0.0035	0.0015	0.0245
425	1	 0.001	2500	0.0045	0.0015	0.0245
426	1	 0.001	2500	0.0055	0.0015	0.0245
427	1	 0.001	2500	0.0005	0.0025	0.0245
428	1	 0.001	2500	0.0015	0.0025	0.0245
429	1	 0.001	2500	0.0025	0.0025	0.0245
430	1	 0.001	2500	0.0035	0.0025	0.0245
431	1	 0.001	2500	0.0045	0.0025	0.0245
432	1	 0.001	2500	0.0055	0.0025	0.0245
433	1	 0.001	2500	0.0005	0.0035	0.0245
434	1	 0.001	2500	0.0015	0.0035	0.0245
435	1	 0.001	2500	0.0025	0.0035	0.0245
436	1	 0.001	2500	0.0035	0.0035	0.0245
437	1	 0.001	2500	0.0045	0.0035	0.0245
438	1	 0.001	2500	0.0055	0.0035	0.0245
439	1	 0.001	2500	0.0005	0.0045	0.0245
440	1	 0.001	2500	0.0015	0.0045	0.0245
441	1	 0.001	2500	0.0025	0.0045	0.0245
442	1	 0.001	2500	0.0035	0.0045	0.0245
443	1	 0.001	2500	0.0045	0.0045	0.0245
444	1	 0.001	2500	0.0055	0.0045	0.0245
445	1	 0.001	2500	0.0005	0.0055	0.0245
446	1	 0.001	2500	0.0015	0.0055	0.0245
447	1	 0.001	2500	0.0025	0.0055	0.0245
448	1	 0.001	2500	0.0035	0.0055	0.0245
449	1	 0.001	2500	0.0045	0.0055	0.0245
450	1	 0.001	2500	0.0055	0.0055	0.0245
451	1	 0.001	2500	0.0005	0.0065	0.0245
452	1	 0.001	2500	0.0015	0.0065	0.0245
453	1	 0.001	2500	0.0025	0.0065	0.0245
454	1	 0.001	2500	0.0035	0.0065	0.0245
455	1	 0.001	2500	0.0045	0.0065	0.0245
456	1	 0.001	2500	0.0055	0.0065	0.0245
457	1	 0.001	2500	0.0005	0.0075	0.0245
458	1	 0.001	2500	0.0015	0.0075	0.0245
459	1	 0.001	2500	0.0025	0.0075	0.0245
460	1	 0.001	2500	0.0035	0.0075	0.0245
461	1	 0.001	2500	0.0045	0.0075	0.0245
462	1	 0.001	2500	0.0055	0.0075	0.0245
463	1	 0.001	2500	0.0005	0.0005	0.0255
464	1	 0.001	2500	0.0015	0.0005	0.0255
465	1	 0.001	2500	0.0025	0.0005	0.0255
466	1	 0.001	2500	0.0035	0.0005	0.0255
467	1	 0.001	2500	0.0045	0.0005	0.0255
468	1	 0.001	2500	0.0055	0.0005	0.0255
469	1	 0.001	2500	0.0005	0.0015	0.0255
470	1	 0.001	2500	0.0015	0.0015	0.0255
471	1	 0.001	2500	0.0025	0.0015	0.0255
472	1	 0.001	2500	0.0035	0.0015	0.0255
473	1	 0.001	2500	0.0045	0.0015	0.0255
474	1	 0.001	2500	0.0055	0.0015	0.0255
475	1	 0.001	2500	0.0005	0.0025	0.0255
476	1	 0.001	2500	0.0015	0.0025	0.0255
477	1	 0.001	2500	0.0025	0.0025	0.0255
478	1	 0.001	2500	0.0035	0.0025	0.0255
479	1	 0.001	2500	0.0045	0.0025	0.0255
480	1	 0.001	2500	0.0055	0.0025	0.0255
481	1	 0.001	2500	0.0005	0.0035	0.0255
482	1	 0.001	2500	0.0015	0.0035	0.0255
483	1	 0.001	2500	0.0025	0.0035	0.0255
484	1	 0.001	2500	0.0035	0.0035	0.0255
485	1	 0.001	2500	0.0045	0.0035	0.0255
486	1	 0.001	2500	0.0055	0.0035	0.0255
487	1	 0.001	2500	0.0005	0.0045	0.0255
488	1	 0.001	2500	0.0015	0.0045	0.0255
489	1	 0.001	2500	0.0025	0.0045	0.0255
490	1	 0.001	2500	0.0035	0.0045	0.0255
491	1	 0.001	2500	0.0045	0.0045	0.0255
492	1	 0.001	2500	0.0055	0.0045	0.0255
493	1	 0.001	2500	0.0005	0.0055	0.0255
494	1	 0.001	2500	0.0015	0.0055	0.0255
495	1	 0.001	2500	0.0025	0.0055	0.0255
496	1	 0.001	2500	0.0035	0.0055	0.0255
497	1	 0.001	2500	0.0045	0.0055	0.0255
498	1	 0.001	2500	0.0055	0.0055	0.0255
499	1	 0.001	2500	0.0005	0.0065	0.0255
500	1	 0.001	2500	0.0015	0.0065	0.0255
501	1	 0.001	2500	0.0025	0.0065	0.0255
502	1	 0.001	2500	0.0035	0.0065	0.0255
503	1	 0.001	2500	0.0045	0.0065	0.0255
504	1	 0.001	2500	0.0055	0.0065	0.0255
505	1	 0.001	2500	0.0005	0.0075	0.0255
506	1	 0.001	2500	0.0015	0.0075	0.0255
507	1	 0.001	2500	0.0025	0.0075	0.0255
508	1	 0.001	2500	0.0035	0.0075	0.0255
509	1	 0.001	2500	0.0045	0.0075	0.0255
510	1	 0.001	2500	0.0055	0.0075	0.0255
511	1	 0.001	2500	0.0005	0.0005	0.0265
512	1	 0.001	2500	0.0015	0.0005	0.0265
513	1	 0.001	2500	0.0025	0.0005	0.0265
514	1	 0.001	2500	0.0035	0.0005	0.0265
515	1	 0.001	2500	0.0045	0.0005	0.0265
516	1	 0.001	2500	0.0055	0.0005	0.0265
517	1	 0.001	2500	0.0005	0.0015	0.0265
518	1	 0.001	2500	0.0015	0.0015	0.0265
519	1	 0.001	2500	0.0025	0.0015	0.0265
520	1	 0.001	2500	0.0035	0.0015	0.0265
521	1	 0.001	2500	0.0045	0.0015	0.0265
522	1	 0.001	2500	0.0055	0.0015	0.0265
523	1	 0.001	2500	0.0005	0.0025	0.0265
524	1	 0.001	2500	0.0015	0.0025	0.0265
525	1	 0.001	2500	0.0025	0.0025	0.0265
526	1	 0.001	2500	0.0035	0.0025	0.0265
527	1	 0.001	2500	0.0045	0.0025	0.0265
528	1	 0.001	2500	0.0055	0.0025	0.0265
529	1	 0.001	2500	0.0005	0.0035	0.0265
530	1	 0.001	2500	0.0015	0.0035	0.0265
531	1	 0.001	2500	0.0025	0.0035	0.0265
532	1	 0.001	2500	0.0035	0.0035	0.0265
533	1	 0.001	2500	0.0045	0.0035	0.0265
534	1	 0.001	2500	0.0055	0.0035	0.0265
535	1	 0.001	2500	0.0005	0.0045	0.0265
536	1	 0.001	2500	0.0015	0.0045	0.0265
537	1	 0.001	2500	0.0025	0.0045	0.0265
538	1	 0.001	2500	0.0035	0.0045	0.0265
539	1	 0.001	2500	0.0045	0.0045	0.0265
540	1	 0.001	2500	0.0055	0.0045	0.0265
541	1	 0.001	2500	0.0005	0.0055	0.0265
542	1	 0.001	2500	0.0015	0.0055	0.0265
543	1	 0.001	2500	0.0025	0.0055	0.0265
544	1	 0.001	2500	0.0035	0.0055	0.0265
545	1	 0.001	2500	0.0045	0.0055	0.0265
546	1	 0.001	2500	0.0055	0.0055	0.0265
547	1	 0.001	2500	0.0005	0.0065	0.0265
548	1	 0.001	2500	0.0015	0.0065	0.0265
549	1	 0.001	2500	0.0025	0.0065	0.0265
550	1	 0.001	2500	0.0035	0.0065	0.0265
551	1	 0.001	2500	0.0045	0.0065	0.0265
552	1	 0.001	2500	0.0055	0.0065	0.0265
553	1	 0.001	2500	0.0005	0.0075	0.0265
554	1	 0.001	2500	0.0015	0.0075	0.0265
555	1	 0.001	2500	0.0025	0.0075	0.0265
556	1	 0.001	2500	0.0035	0.0075	0.0265
557	1	 0.001	2500	0.0045	0.0075	0.0265
558	1	 0.001	2500	0.0055	0.0075	0.0265
559	1	 0.001	2500	0.0005	0.0005	0.0275
560	1	 0.001	2500	0.0015	0.0005	0.0275
561	1	 0.001	2500	0.0025	0.0005	0.0275
562	1	 0.001	2500	0.0035	0.0005	0.0275
563	1	 0.001	2500	0.0045	0.0005	0.0275
564	1	 0.001	2500	0.0055	0.0005	0.0275
565	1	 0.001	2500	0.0005	0.0015	0.0275
566	1	 0.001	2500	0.0015	0.0015	0.0275
567	1	 0.001	2500	0.0025	0.0015	0.0275
568	1	 0.001	2500	0.0035	0.0015	0.0275
569	1	 0.001	2500	0.0045	0.0015	0.0275
570	1	 0.001	2500	0.0055	0.0015	0.0275
571	1	 0.001	2500	0.0005	0.0025	0.0275
572	1	 0.001	2500	0.0015	0.0025	0.0275
573	1	 0.001	2500	0.0025	0.0025	0.0275
574	1	 0.001	2500	0.0035	0.0025	0.0275
575	1	 0.001	2500	0.0045	0.0025	0.0275
576	1	 0.001	2500	0.0055	0.0025	0.0275
577	1	 0.001	2500	0.0005	0.0035	0.0275
578	1	 0.001	2500	0.0015	0.0035	0.0275
579	1	 0.001	2500	0.0025	0.0035	0.0275
580	1	 0.001	2500	0.0035	0.0035	0.0275
581	1	 0.001	2500	0.0045	0.0035	0.0275
582	1	 0.001	2500	0.0055	0.0035	0.0275
583	1	 0.001	2500	0.0005	0.0045	0.0275
584	1	 0.001	2500	0.0015	0.0045	0.0275
585	1	 0.001	2500	0.0025	0.0045	0.0275
586	1	 0.001	2500	0.0035	0.0045	0.0275
587	1	 0.001	2500	0.0045	0.0045	0.0275
588	1	 0.001	2500	0.0055	0.0045	0.0275
589	1	 0.001	2500	0.0005	0.0055	0.0275
590	1	 0.001	2500	0.0015	0.0055	0.0275
591	1	 0.001	2500	0.0025	0.0055	0.0275
592	1	 0.001	2500	0.0035	0.0055	0.0275
593	1	 0.001	2500	0.0045	0.0055	0.0275
594	1	 0.001	2500	0.0055	0.0055	0.0275
595	1	 0.001	2500	0.0005	0.0065	0.0275
596	1	 0.001	2500	0.0015	0.0065	0.0275
597	1	 0.001	2500	0.0025	0.0065	0.0275
598	1	 0.001	2500	0.0035	0.0065	0.0275
599	1	 0.001	2500	0.0045	0.0065	0.0275
600	1	 0.001	2500	0.0055	0.0065	0.0275
601	1	 0.001	2500	0.0005	0.0075	0.0275
602	1	 0.001	2500	0.0015	0.0075	0.0275
603	1	 0.001	2500	0.0025	0.0075	0.0275
604	1	 0.001	2500	0.0035	0.0075	0.0275
605	1	 0.001	2500	0.0045	0.0075	0.0275
606	1	 0.001	2500	0.0055	0.0075	0.0275
607	1	 0.001	2500	0.0005	0.0085	0.0275
608	1	 0.001	2500	0.0015	0.0085	0.0275
609	1	 0.001	2500	0.0025	0.0085	0.0275
610	1	 0.001	2500	0.0035	0.0085	0.0275
611	1	 0.001	2500	0.0045	0.0085	0.0275
612	1	 0.001	2500	0.0055	0.0085	0.0275
613	1	 0.001	2500	0.0005	0.0005	0.0285
614	1	 0.001	2500	0.0015	0.0005	0.0285
615	1	 0.001	2500	0.0025	0.0005	0.0285
616	1	 0.001	2500	0.0035	0.0005	0.0285
617	1	 0.001	2500	0.0045	0.0005	0.0285
618	1	 0.001	2500	0.0055	0.0005	0.0285
619	1	 0.001	2500	0.0005	0.0015	0.0285
620	1	 0.001	2500	0.0015	0.0015	0.0285
621	1	 0.001	2500	0.0025	0.0015	0.0285
622	1	 0.001	2500	0.0035	0.0015	0.0285
623	1	 0.001	2500	0.0045	0.0015	0.0285
624	1	 0.001	2500	0.0055	0.0015	0.0285
625	1	 0.001	2500	0.0005	0.0025	0.0285
626	1	 0.001	2500	0.0015	0.0025	0.0285
627	1	 0.001	2500	0.0025	0.0025	0.0285
628	1	 0.001	2500	0.0035	0.0025	0.0285
629	1	 0.001	2500	0.0045	0.0025	0.0285
630	1	 0.001	2500	0.0055	0.0025	0.0285
631	1	 0.001	2500	0.0005	0.0035	0.0285
632	1	 0.001	2500	0.0015	0.0035	0.0285
633	1	 0.001	2500	0.0025	0.0035	0.0285
634	1	 0.001	2500	0.0035	0.0035	0.0285
635	1	 0.001	2500	0.0045	0.0035	0.0285
636	1	 0.001	2500	0.0055	0.0035	0.0285
637	1	 0.001	2500	0.0005	0.0045	0.0285
638	1	 0.001	2500	0.0015	0.0045	0.0285
639	1	 0.001	2500	0.0025	0.0045	0.0285
640	1	 0.001	2500	0.0035	0.0045	0.0285
641	1	 0.001	2500	0.0045	0.0045	0.0285
642	1	 0.001	2500	0.0055	0.0045	0.0285
643	1	 0.001	2500	0.0005	0.0055	0.0285
644	1	 0.001	2500	0.0015	0.0055	0.0285
645	1	 0.001	2500	0.0025	0.0055	0.0285
646	1	 0.001	2500	0.0035	0.0055	0.0285
647	1	 0.001	2500	0.0045	0.0055	0.0285
648	1	 0.001	2500	0.0055	0.0055	0.0285
649	1	 0.001	2500	0.0005	0.0065	0.0285
650	1	 0.001	2500	0.0015	0.0065	0.0285
651	1	 0.001	2500	0.0025	0.0065	0.0285
652	1	 0.001	2500	0.0035	0.0065	0.0285
653	1	 0.001	2500	0.0045	0.0065	0.0285
654	1	 0.001	2500	0.0055	0.0065	0.0285
655	1	 0.001	2500	0.0005	0.0075	0.0285
656	1	 0.001	2500	0.0015	0.0075	0.0285
657	1	 0.001	2500	0.0025	0.0075	0.0285
658	1	 0.001	2500	0.0035	0.0075	0.0285
659	1	 0.001	2500	0.0045	0.0075	0.0285
660	1	 0.001	2500	0.0055	0.0075	0.0285
661	1	 0.001	2500	0.0005	0.0085	0.0285
662	1	 0.001	2500	0.0015	0.0085	0.0285
663	1	 0.001	2500	0.0025	0.0085	0.0285
664	1	 0.001	2500	0.0035	0.0085	0.0285
665	1	 0.001	2500	0.0045	0.0085	0.0285
666	1	 0.001	2500	0.0055	0.0085	0.0285
667	1	 0.001	2500	0.0005	0.0005	0.0295
668	1	 0.001	2500	0.0015	0.0005	0.0295
669	1	 0.001	2500	0.0025	0.0005	0.0295
670	1	 0.001	2500	0.0035	0.0005	0.0295
671	1	 0.001	2500	0.0045	0.0005	0.0295
672	1	 0.001	2500	0.0055	0.0005	0.0295
673	1	 0.001	2500	0.0005	0.0015	0.0295
674	1	 0.001	2500	0.0015	0.0015	0.0295
675	1	 0.001	2500	0.0025	0.0015	0.0295
676	1	 0.001	2500	0.0035	0.0015	0.0295
677	1	 0.001	2500	0.0045	0.0015	0.0295
678	1	 0.001	2500	0.0055	0.0015	0.0295
679	1	 0.001	2500	0.0005	0.0025	0.0295
680	1	 0.001	2500	0.0015	0.0025	0.0295
681	1	 0.001	2500	0.0025	0.0025	0.0295
682	1	 0.001	2500	0.0035	0.0025	0.0295
683	1	 0.001	2500	0.0045	0.0025	0.0295
684	1	 0.001	2500	0.0055	0.0025	0.0295
685	1	 0.001	2500	0.0005	0.0035	0.0295
686	1	 0.001	2500	0.0015	0.0035	0.0295
687	1	 0.001	2500	0.0025	0.0035	0.0295
688	1	 0.001	2500	0.0035	0.0035	0.0295
689	1	 0.001	2500	0.0045	0.0035	0.0295
690	1	 0.001	2500	0.0055	0.0035	0.0295
691	1	 0.001	2500	0.0005	0.0045	0.0295
692	1	 0.001	2500	0.0015	0.0045	0.0295
693	1	 0.001	2500	0.0025	0.0045	0.0295
694	1	 0.001	2500	0.0035	0.0045	0.0295
695	1	 0.001	2500	0.0045	0.0045	0.0295
696	1	 0.001	2500	0.0055	0.0045	0.0295
697	1	 0.001	2500	0.0005	0.0055	0.0295
698	1	 0.001	2500	0.0015	0.0055	0.0295
699	1	 0.001	2500	0.0025	0.0055	0.0295
700	1	 0.001	2500	0.0035	0.0055	0.0295
701	1	 0.001	2500	0.0045	0.0055	0.0295
702	1	 0.001	2500	0.0055	0.0055	0.0295
703	1	 0.001	2500	0.0005	0.0065	0.0295
704	1	 0.001	2500	0.0015	0.0065	0.0295
705	1	 0.001	2500	0.0025	0.0065	0.0295
706	1	 0.001	2500	0.0035	0.0065	0.0295
707	1	 0.001	2500	0.0045	0.0065	0.0295
708	1	 0.001	2500	0.0055	0.0065	0.0295
709	1	 0.001	2500	0.0005	0.0075	0.0295
710	1	 0.001	2500	0.0015	0.0075	0.0295
711	1	 0.001	2500	0.0025	0.0075	0.0295
712	1	 0.001	2500	0.0035	0.0075	0.0295
713	1	 0.001	2500	0.0045	0.0075	0.0295
714	1	 0.001	2500	0.0055	0.0075	0.0295
715	1	 0.001	2500	0.0005	0.0085	0.0295
716	1	 0.001	2500	0.0015	0.0085	0.0295
717	1	 0.001	2500	0.0025	0.0085	0.0295
718	1	 0.001	2500	0.0035	0.0085	0.0295
719	1	 0.001	2500	0.0045	0.0085	0.0295
720	1	 0.001	2500	0.0055	0.0085	0.0295
721	1	 0.001	2500	0.0005	0.0095	0.0295
722	1	 0.001	2500	0.0015	0.0095	0.0295
723	1	 0.001	2500	0.0025	0.0095	0.0295
724	1	 0.001	2500	0.0035	0.0095	0.0295
725	1	 0.001	2500	0.0045	0.0095	0.0295
726	1	 0.001	2500	0.0055	0.0095	0.0295
727	1	 0.001	2500	0.0005	0.0005	0.0305
728	1	 0.001	2500	0.0015	0.0005	0.0305
729	1	 0.001	2500	0.0025	0.0005	0.0305
730	1	 0.001	2500	0.0035	0.0005	0.0305
731	1	 0.001	2500	0.0045	0.0005	0.0305
732	1	 0.001	2500	0.0055	0.0005	0.0305
733	1	 0.001	2500	0.0005	0.0015	0.0305
734	1	 0.001	2500	0.0015	0.0015	0.0305
735	1	 0.001	2500	0.0025	0.0015	0.0305
736	1	 0.001	2500	0.0035	0.0015	0.0305
737	1	 0.001	2500	0.0045	0.0015	0.0305
738	1	 0.001	2500	0.0055	0.0015	0.0305
739	1	 0.001	2500	0.0005	0.0025	0.0305
740	1	 0.001	2500	0.0015	0.0025	0.0305
741	1	 0.001	2500	0.0025	0.0025	0.0305
742	1	 0.001	2500	0.0035	0.0025	0.0305
743	1	 0.001	2500	0.0045	0.0025	0.0305
744	1	 0.001	2500	0.0055	0.0025	0.0305
745	1	 0.001	2500	0.0005	0.0035	0.0305
746	1	 0.001	2500	0.0015	0.0035	0.0305
747	1	 0.001	2500	0.0025	0.0035	0.0305
748	1	 0.001	2500	0.0035	0.0035	0.0305
749	1	 0.001	2500	0.0045	0.0035	0.0305
750	1	 0.001	2500	0.0055	0.0035	0.0305
751	1	 0.001	2500	0.0005	0.0045	0.0305
752	1	 0.001	2500	0.0015	0.0045	0.0305
753	1	 0.001	2500	0.0025	0.0045	0.0305
754	1	 0.001	2500	0.0035	0.0045	0.0305
755	1	 0.001	2500	0.0045	0.0045	0.0305
756	1	 0.001	2500	0.0055	0.0045	0.0305
757	1	 0.001	2500	0.0005	0.0055	0.0305
758	1	 0.001	2500	0.0015	0.0055	0.0305
759	1	 0.001	2500	0.0025	0.0055	0.0305
760	1	 0.001	2500	0.0035	0.0055	0.0305
761	1	 0.001	2500	0.0045	0.0055	0.0305
762	1	 0.001	2500	0.0055	0.0055	0.0305
763	1	 0.001	2500	0.0005	0.0065	0.0305
764	1	 0.001	2500	0.0015	0.0065	0.0305
765	1	 0.001	2500	0.0025	0.0065	0.0305
766	1	 0.001	2500	0.0035	0.0065	0.0305
767	1	 0.001	2500	0.0045	0.0065	0.0305
768	1	 0.001	2500	0.0055	0.0065	0.0305
769	1	 0.001	2500	0.0005	0.0075	0.0305