# Probe 0 (0.0015 0.0015 0)
# Probe 1 (0.0015 0.0015 0.002)
# Probe 2 (0.0015 0.0015 0.004)
# Probe 3 (0.0015 0.0015 0.006)
# Probe 4 (0.0015 0.0015 0.008)
# Probe 5 (0.0015 0.0015 0.01)
# Probe 6 (0.0015 0.0015 0.012)
# Probe 7 (0.0015 0.0015 0.014)
# Probe 8 (0.0015 0.0015 0.016)
# Probe 9 (0.0015 0.0015 0.018)
# Probe 10 (0.0015 0.0015 0.02)
# Time        0             1             2             3             4             5             6             7             8             9             10           
50            0.000520612   0.000520612   0.000520612   0.000520612   0.000520612   0.000520612   0.000520612   0.000520612   0.000520612   0.000520612   0.000520612  
100           0.000520612   0.000520612   0.000520612   0.000520612   0.000520612   0.000520612   0.000520612   0.000520612   0.000520612   0.000520612   0.000520612  
150           0.000520612   0.000520612   0.000520612   0.000520612   0.000520612   0.000520612   0.000520612   0.000520612   0.000520612   0.000520612   0.000520612  
200           0.000520612   0.000520612   0.000520612   0.000520612   0.000520612   0.000520612   0.000520612   0.000520612   0.000520612   0.000520612   0.000520612  
250           0.000520612   0.000520612   0.000520612   0.000520612   0.000520612   0.000520612   0.000520612   0.000520612   0.000520612   0.000520612   0.000520612  
300           0.000520612   0.000520612   0.000520612   0.000520612   0.000520612   0.000520612   0.000520612   0.000520612   0.000520612   0.000520612   0.000520612  
350           0.000520612   0.000520612   0.000520612   0.000520612   0.000520612   0.000520612   0.000520612   0.000520612   0.000520612   0.000520612   0.000520612  
400           0.000520612   0.000520612   0.000520612   0.000520612   0.000520612   0.000520612   0.000520612   0.000520612   0.000520612   0.000520612   0.000520612  
450           0.000520612   0.000520612   0.000520612   0.000520612   0.000520612   0.000520612   0.000520612   0.000520612   0.000520612   0.000520612   0.000520612  
500           0.000520612   0.000520612   0.000520612   0.000520612   0.000520612   0.000520612   0.000520612   0.000520612   0.000520612   0.000520612   0.000520612  
550           0.000520612   0.000520612   0.000520612   0.000520612   0.000520612   0.000520612   0.000520612   0.000520612   0.000520612   0.000520612   0.000520612  
600           0.000520612   0.000520612   0.000520612   0.000520612   0.000520612   0.000520612   0.000520612   0.000520612   0.000520612   0.000520612   0.000520612  
650           0.000520612   0.000520612   0.000520612   0.000520612   0.000520612   0.000520612   0.000520612   0.000520612   0.000520612   0.000520612   0.000520612  
700           0.000520612   0.000520612   0.000520612   0.000520612   0.000520612   0.000520612   0.000520612   0.000520612   0.000520612   0.000520612   0.000520612  
750           0.000520612   0.000520612   0.000520612   0.000520612   0.000520612   0.000520612   0.000520612   0.000520612   0.000520612   0.000520612   0.000520612  
800           0.000520612   0.000520612   0.000520612   0.000520612   0.000520612   0.000520612   0.000520612   0.000520612   0.000520612   0.000520612   0.000520612  
850           0.000520612   0.000520612   0.000520612   0.000520612   0.000520612   0.000520612   0.000520612   0.000520612   0.000520612   0.000520612   0.000520612  
900           0.000520612   0.000520612   0.000520612   0.000520612   0.000520612   0.000520612   0.000520612   0.000520612   0.000520612   0.000520612   0.000520612  
950           0.000520612   0.000520612   0.000520612   0.000520612   0.000520612   0.000520612   0.000520612   0.000520612   0.000520612   0.000520612   0.000520612  
1000          0.000520612   0.000520612   0.000520612   0.000520612   0.000520612   0.000520612   0.000520612   0.000520612   0.000520612   0.000520612   0.000520612  
1050          0.000520612   0.000520612   0.000520612   0.000520612   0.000520612   0.000520612   0.000520612   0.000520612   0.000520612   0.000520612   0.000520612  
1100          0.000520612   0.000520612   0.000520612   0.000520612   0.000520612   0.000520612   0.000520612   0.000520612   0.000520612   0.000520612   0.000520612  
1150          0.000520612   0.000520612   0.000520612   0.000520612   0.000520612   0.000520612   0.000520612   0.000520612   0.000520612   0.000520612   0.000520612  
1200          0.000520612   0.000520612   0.000520612   0.000520612   0.000520612   0.000520612   0.000520612   0.000520612   0.000520612   0.000520612   0.000520612  
1250          0.000520612   0.000520612   0.000520612   0.000520612   0.000520612   0.000520612   0.000520612   0.000520612   0.000520612   0.000520612   0.000520612  
1300          0.000520612   0.000520612   0.000520612   0.000520612   0.000520612   0.000520612   0.000520612   0.000520612   0.000520612   0.000520612   0.000520612  
1350          0.000520612   0.000520612   0.000520612   0.000520612   0.000520612   0.000520612   0.000520612   0.000520612   0.000520612   0.000520612   0.000520612  
1400          0.000520612   0.000520612   0.000520612   0.000520612   0.000520612   0.000520612   0.000520612   0.000520612   0.000520612   0.000520612   0.000520612  
1450          0.000520612   0.000520612   0.000520612   0.000520612   0.000520612   0.000520612   0.000520612   0.000520612   0.000520612   0.000520612   0.000520612  
1500          0.000520612   0.000520612   0.000520612   0.000520612   0.000520612   0.000520612   0.000520612   0.000520612   0.000520612   0.000520612   0.000520612  
1550          0.000520612   0.000520612   0.000520612   0.000520612   0.000520612   0.000520612   0.000520612   0.000520612   0.000520612   0.000520612   0.000520612  
1600          0.000520612   0.000520612   0.000520612   0.000520612   0.000520612   0.000520612   0.000520612   0.000520612   0.000520612   0.000520612   0.000520612  
1650          0.000520612   0.000520612   0.000520612   0.000520612   0.000520612   0.000520612   0.000520612   0.000520612   0.000520612   0.000520612   0.000520612  
1700          0.000520612   0.000520612   0.000520612   0.000520612   0.000520612   0.000520612   0.000520612   0.000520612   0.000520612   0.000520612   0.000520612  
1750          0.000520612   0.000520612   0.000520612   0.000520612   0.000520612   0.000520612   0.000520612   0.000520612   0.000520612   0.000520612   0.000520612  
1800          0.000520612   0.000520612   0.000520612   0.000520612   0.000520612   0.000520612   0.000520612   0.000520612   0.000520612   0.000520612   0.000520612  
1850          0.000520612   0.000520612   0.000520612   0.000520612   0.000520612   0.000520612   0.000520612   0.000520612   0.000520612   0.000520612   0.000520612  
1900          0.000520612   0.000520612   0.000520612   0.000520612   0.000520612   0.000520612   0.000520612   0.000520612   0.000520612   0.000520612   0.000520612  
1950          0.000520612   0.000520612   0.000520612   0.000520612   0.000520612   0.000520612   0.000520612   0.000520612   0.000520612   0.000520612   0.000520612  
2000          0.000520612   0.000520612   0.000520612   0.000520612   0.000520612   0.000520612   0.000520612   0.000520612   0.000520612   0.000520612   0.000520612  
2050          0.000520612   0.000520612   0.000520612   0.000520612   0.000520612   0.000520612   0.000520612   0.000520612   0.000520612   0.000520612   0.000520612  
2100          0.000520612   0.000520612   0.000520612   0.000520612   0.000520612   0.000520612   0.000520612   0.000520612   0.000520612   0.000520612   0.000520612  
2150          0.000520612   0.000520612   0.000520612   0.000520612   0.000520612   0.000520612   0.000520612   0.000520612   0.000520612   0.000520612   0.000520612  
2200          0.000520612   0.000520612   0.000520612   0.000520612   0.000520612   0.000520612   0.000520612   0.000520612   0.000520612   0.000520612   0.000520612  
2250          0.000520612   0.000520612   0.000520612   0.000520612   0.000520612   0.000520612   0.000520612   0.000520612   0.000520612   0.000520612   0.000520612  
2300          0.000520612   0.000520612   0.000520612   0.000520612   0.000520612   0.000520612   0.000520612   0.000520612   0.000520612   0.000520612   0.000520612  
2350          0.000520612   0.000520612   0.000520612   0.000520612   0.000520612   0.000520612   0.000520612   0.000520612   0.000520612   0.000520612   0.000520612  
2400          0.000520612   0.000520612   0.000520612   0.000520612   0.000520612   0.000520612   0.000520612   0.000520612   0.000520612   0.000520612   0.000520612  
2450          0.000520612   0.000520612   0.000520612   0.000520612   0.000520612   0.000520612   0.000520612   0.000520612   0.000520612   0.000520612   0.000520612  
2500          0.000520612   0.000520612   0.000520612   0.000520612   0.000520612   0.000520612   0.000520612   0.000520612   0.000520612   0.000520612   0.000520612  
2550          0.000520612   0.000520612   0.000520612   0.000520612   0.000520612   0.000520612   0.000520612   0.000520612   0.000520612   0.000520612   0.000520612  
2600          0.000520612   0.000520612   0.000520612   0.000520612   0.000520612   0.000520612   0.000520612   0.000520612   0.000520612   0.000520612   0.000520612  
2650          0.000520612   0.000520612   0.000520612   0.000520612   0.000520612   0.000520612   0.000520612   0.000520612   0.000520612   0.000520612   0.000520612  
2700          0.000520612   0.000520612   0.000520612   0.000520612   0.000520612   0.000520612   0.000520612   0.000520612   0.000520612   0.000520612   0.000520612  
2750          0.000520612   0.000520612   0.000520612   0.000520612   0.000520612   0.000520612   0.000520612   0.000520612   0.000520612   0.000520612   0.000520612  
2800          0.000520612   0.000520612   0.000520612   0.000520612   0.000520612   0.000520612   0.000520612   0.000520612   0.000520612   0.000520612   0.000520612  
2850          0.000520612   0.000520612   0.000520612   0.000520612   0.000520612   0.000520612   0.000520612   0.000520612   0.000520612   0.000520612   0.000520612  
2900          0.000520612   0.000520612   0.000520612   0.000520612   0.000520612   0.000520612   0.000520612   0.000520612   0.000520612   0.000520612   0.000520612  
2950          0.000520612   0.000520612   0.000520612   0.000520612   0.000520612   0.000520612   0.000520612   0.000520612   0.000520612   0.000520612   0.000520612  
3000          0.000520612   0.000520612   0.000520612   0.000520612   0.000520612   0.000520612   0.000520612   0.000520612   0.000520612   0.000520612   0.000520612  
3050          0.000520612   0.000520612   0.000520612   0.000520612   0.000520612   0.000520612   0.000520612   0.000520612   0.000520612   0.000520612   0.000520612  
3100          0.000520612   0.000520612   0.000520612   0.000520612   0.000520612   0.000520612   0.000520612   0.000520612   0.000520612   0.000520612   0.000520612  
3150          0.000520612   0.000520612   0.000520612   0.000520612   0.000520612   0.000520612   0.000520612   0.000520612   0.000520612   0.000520612   0.000520612  
3200          0.000520612   0.000520612   0.000520612   0.000520612   0.000520612   0.000520612   0.000520612   0.000520612   0.000520612   0.000520612   0.000520612  
3250          0.000520612   0.000520612   0.000520612   0.000520612   0.000520612   0.000520612   0.000520612   0.000520612   0.000520612   0.000520612   0.000520612  
3300          0.000520612   0.000520612   0.000520612   0.000520612   0.000520612   0.000520612   0.000520612   0.000520612   0.000520612   0.000520612   0.000520612  
3350          0.000520612   0.000520612   0.000520612   0.000520612   0.000520612   0.000520612   0.000520612   0.000520612   0.000520612   0.000520612   0.000520612  
3400          0.000520612   0.000520612   0.000520612   0.000520612   0.000520612   0.000520612   0.000520612   0.000520612   0.000520612   0.000520612   0.000520612  
3450          0.000520612   0.000520612   0.000520612   0.000520612   0.000520612   0.000520612   0.000520612   0.000520612   0.000520612   0.000520612   0.000520612  
3500          0.000520612   0.000520612   0.000520612   0.000520612   0.000520612   0.000520612   0.000520612   0.000520612   0.000520612   0.000520612   0.000520612  
3550          0.000520612   0.000520612   0.000520612   0.000520612   0.000520612   0.000520612   0.000520612   0.000520612   0.000520612   0.000520612   0.000520612  
3600          0.000520612   0.000520612   0.000520612   0.000520612   0.000520612   0.000520612   0.000520612   0.000520612   0.000520612   0.000520612   0.000520612  
3650          0.000520612   0.000520612   0.000520612   0.000520612   0.000520612   0.000520612   0.000520612   0.000520612   0.000520612   0.000520612   0.000520612  
3700          0.000520612   0.000520612   0.000520612   0.000520612   0.000520612   0.000520612   0.000520612   0.000520612   0.000520612   0.000520612   0.000520612  
3750          0.000520612   0.000520612   0.000520612   0.000520612   0.000520612   0.000520612   0.000520612   0.000520612   0.000520612   0.000520612   0.000520612  
3800          0.000520612   0.000520612   0.000520612   0.000520612   0.000520612   0.000520612   0.000520612   0.000520612   0.000520612   0.000520612   0.000520612  
3850          0.000520612   0.000520612   0.000520612   0.000520612   0.000520612   0.000520612   0.000520612   0.000520612   0.000520612   0.000520612   0.000520612  
3900          0.000520612   0.000520612   0.000520612   0.000520612   0.000520612   0.000520612   0.000520612   0.000520612   0.000520612   0.000520612   0.000520612  
3950          0.000520612   0.000520612   0.000520612   0.000520612   0.000520612   0.000520612   0.000520612   0.000520612   0.000520612   0.000520612   0.000520612  
4000          0.000520612   0.000520612   0.000520612   0.000520612   0.000520612   0.000520612   0.000520612   0.000520612   0.000520612   0.000520612   0.000520612  
4050          0.000520612   0.000520612   0.000520612   0.000520612   0.000520612   0.000520612   0.000520612   0.000520612   0.000520612   0.000520612   0.000520612  
4100          0.000520612   0.000520612   0.000520612   0.000520612   0.000520612   0.000520612   0.000520612   0.000520612   0.000520612   0.000520612   0.000520612  
4150          0.000520612   0.000520612   0.000520612   0.000520612   0.000520612   0.000520612   0.000520612   0.000520612   0.000520612   0.000520612   0.000520612  
4200          0.000520612   0.000520612   0.000520612   0.000520612   0.000520612   0.000520612   0.000520612   0.000520612   0.000520612   0.000520612   0.000520612  
4250          0.000520612   0.000520612   0.000520612   0.000520612   0.000520612   0.000520612   0.000520612   0.000520612   0.000520612   0.000520612   0.000520612  
4300          0.000520612   0.000520612   0.000520612   0.000520612   0.000520612   0.000520612   0.000520612   0.000520612   0.000520612   0.000520612   0.000520612  
4350          0.000520612   0.000520612   0.000520612   0.000520612   0.000520612   0.000520612   0.000520612   0.000520612   0.000520612   0.000520612   0.000520612  
4400          0.000520612   0.000520612   0.000520612   0.000520612   0.000520612   0.000520612   0.000520612   0.000520612   0.000520612   0.000520612   0.000520612  
4450          0.000520612   0.000520612   0.000520612   0.000520612   0.000520612   0.000520612   0.000520612   0.000520612   0.000520612   0.000520612   0.000520612  
4500          0.000520612   0.000520612   0.000520612   0.000520612   0.000520612   0.000520612   0.000520612   0.000520612   0.000520612   0.000520612   0.000520612  
4550          0.000520612   0.000520612   0.000520612   0.000520612   0.000520612   0.000520612   0.000520612   0.000520612   0.000520612   0.000520612   0.000520612  
4600          0.000520612   0.000520612   0.000520612   0.000520612   0.000520612   0.000520612   0.000520612   0.000520612   0.000520612   0.000520612   0.000520612  
4650          0.000520612   0.000520612   0.000520612   0.000520612   0.000520612   0.000520612   0.000520612   0.000520612   0.000520612   0.000520612   0.000520612  
4700          0.000520612   0.000520612   0.000520612   0.000520612   0.000520612   0.000520612   0.000520612   0.000520612   0.000520612   0.000520612   0.000520612  
4750          0.000520612   0.000520612   0.000520612   0.000520612   0.000520612   0.000520612   0.000520612   0.000520612   0.000520612   0.000520612   0.000520612  
4800          0.000520612   0.000520612   0.000520612   0.000520612   0.000520612   0.000520612   0.000520612   0.000520612   0.000520612   0.000520612   0.000520612  
4850          0.000520612   0.000520612   0.000520612   0.000520612   0.000520612   0.000520612   0.000520612   0.000520612   0.000520612   0.000520612   0.000520612  
4900          0.000520612   0.000520612   0.000520612   0.000520612   0.000520612   0.000520612   0.000520612   0.000520612   0.000520612   0.000520612   0.000520612  
4950          0.000520612   0.000520612   0.000520612   0.000520612   0.000520612   0.000520612   0.000520612   0.000520612   0.000520612   0.000520612   0.000520612  
5000          0.000520612   0.000520612   0.000520612   0.000520612   0.000520612   0.000520612   0.000520612   0.000520612   0.000520612   0.000520612   0.000520612  
