# Probe 0 (0.0015 0.0015 0)
# Probe 1 (0.0015 0.0015 0.002)
# Probe 2 (0.0015 0.0015 0.004)
# Probe 3 (0.0015 0.0015 0.006)
# Probe 4 (0.0015 0.0015 0.008)
# Probe 5 (0.0015 0.0015 0.01)
# Probe 6 (0.0015 0.0015 0.012)
# Probe 7 (0.0015 0.0015 0.014)
# Probe 8 (0.0015 0.0015 0.016)
# Probe 9 (0.0015 0.0015 0.018)
# Probe 10 (0.0015 0.0015 0.02)
# Time        0             1             2             3             4             5             6             7             8             9             10           
50            (7.01109e-12 8.90548e-12 -8.18623e-11) (4.71135e-11 -1.43347e-10 2.46441e-11) (5.0338e-10 -5.87775e-10 3.02306e-10) (7.99807e-10 -8.49512e-10 8.72091e-10) (1.16199e-09 -9.2198e-10 1.22986e-09) (1.55605e-09 -1.31838e-09 1.0111e-09) (1.94339e-09 -1.68066e-09 9.52807e-10) (2.00358e-09 -1.92115e-09 1.21491e-09) (2.12831e-09 -2.0144e-09 1.09161e-09) (2.53427e-09 -1.57417e-09 1.55833e-09) (2.43091e-09 -1.56364e-09 1.16941e-09)
100           (6.10963e-11 -6.49941e-11 -8.1584e-12) (2.80291e-10 -5.01629e-10 2.50498e-10) (1.19739e-09 -1.11759e-09 2.03058e-10) (1.85367e-09 -1.67367e-09 1.34011e-10) (2.22715e-09 -1.91244e-09 1.18051e-10) (2.63043e-09 -2.40809e-09 6.09619e-10) (3.10498e-09 -3.01495e-09 7.64013e-10) (3.52872e-09 -3.18858e-09 9.55817e-10) (3.84963e-09 -3.40984e-09 4.20063e-10) (3.8114e-09 -3.32491e-09 7.57832e-10) (4.09215e-09 -3.24647e-09 9.28606e-10)
150           (2.66215e-11 5.27986e-12 6.05427e-11) (6.75195e-10 -4.96072e-10 -4.36992e-11) (1.67152e-09 -1.35655e-09 1.10376e-09) (2.24907e-09 -2.30206e-09 8.72827e-10) (3.14233e-09 -3.16507e-09 3.27092e-10) (3.97825e-09 -3.44651e-09 6.00375e-10) (4.4513e-09 -3.82081e-09 8.49788e-10) (4.8755e-09 -4.18421e-09 9.702e-10) (5.19584e-09 -4.57099e-09 7.21345e-10) (5.25243e-09 -4.78598e-09 1.14508e-09) (5.36244e-09 -4.31096e-09 1.35723e-09)
200           (5.10899e-11 -7.54041e-11 4.28161e-11) (9.17834e-10 -7.74707e-10 -3.46859e-10) (1.90111e-09 -1.77157e-09 4.82933e-10) (2.56392e-09 -2.67045e-09 7.31454e-10) (3.51262e-09 -3.32339e-09 8.73963e-10) (4.67448e-09 -4.23942e-09 1.37299e-09) (5.28351e-09 -4.89223e-09 1.07155e-09) (5.80942e-09 -5.28171e-09 9.14009e-10) (6.25748e-09 -5.76162e-09 1.36619e-09) (6.73879e-09 -5.50768e-09 1.52694e-09) (6.66765e-09 -5.44688e-09 6.24088e-10)
250           (-3.46592e-12 2.89165e-12 1.03101e-10) (8.7694e-10 -7.69424e-10 5.08588e-10) (2.07194e-09 -2.01692e-09 3.88863e-10) (3.36082e-09 -2.85021e-09 7.58443e-10) (4.52466e-09 -4.11596e-09 4.26034e-10) (5.45992e-09 -4.68013e-09 2.31613e-10) (5.94954e-09 -5.59055e-09 7.44995e-10) (6.64257e-09 -6.22463e-09 1.60357e-09) (7.22215e-09 -6.43278e-09 1.15536e-09) (7.58805e-09 -6.40304e-09 8.86652e-10) (7.75278e-09 -6.37554e-09 1.02051e-09)
300           (-1.03769e-11 -4.18169e-11 7.66585e-12) (1.2413e-09 -1.05754e-09 -8.2762e-11) (2.45405e-09 -2.2876e-09 4.13412e-10) (3.59926e-09 -3.29719e-09 1.26966e-09) (4.83109e-09 -4.36399e-09 1.51008e-09) (5.67881e-09 -5.05376e-09 7.67184e-10) (6.56782e-09 -6.05496e-09 1.42202e-09) (7.4579e-09 -6.5768e-09 1.3003e-09) (8.0756e-09 -6.90752e-09 6.74129e-10) (8.19888e-09 -7.01518e-09 9.26855e-10) (8.54266e-09 -7.22e-09 2.50469e-09)
350           (8.30284e-11 -1.6941e-11 9.54527e-11) (1.328e-09 -1.30494e-09 1.55123e-10) (2.5724e-09 -2.27953e-09 -1.90994e-11) (3.85973e-09 -3.71131e-09 -5.38704e-11) (5.17307e-09 -4.69058e-09 2.41599e-10) (6.34946e-09 -5.72944e-09 3.75495e-10) (7.20066e-09 -6.80249e-09 1.15293e-09) (8.16671e-09 -7.06872e-09 5.36144e-10) (8.54999e-09 -7.72843e-09 1.00996e-09) (8.953e-09 -7.67869e-09 1.58379e-09) (9.08204e-09 -7.7218e-09 -1.33182e-10)
400           (8.3783e-11 -4.5851e-11 -1.52895e-11) (1.26437e-09 -1.20874e-09 6.70962e-10) (2.48582e-09 -2.43278e-09 1.9377e-11) (4.1683e-09 -3.80114e-09 2.23016e-10) (5.65723e-09 -4.93197e-09 5.49504e-10) (6.72589e-09 -5.85679e-09 3.15414e-10) (7.62511e-09 -6.91862e-09 -5.0512e-11) (8.46973e-09 -7.7516e-09 7.719e-10) (9.09313e-09 -8.09194e-09 4.53262e-10) (9.40625e-09 -8.37688e-09 6.21704e-10) (9.5403e-09 -8.20352e-09 1.06566e-10)
450           (8.79463e-11 8.43388e-11 1.80077e-10) (1.31924e-09 -1.07571e-09 3.0504e-10) (2.85472e-09 -2.28064e-09 -2.64551e-10) (4.34434e-09 -3.77425e-09 7.66336e-10) (5.66995e-09 -5.30879e-09 5.24059e-10) (7.0234e-09 -6.5363e-09 7.25784e-10) (8.20121e-09 -7.2859e-09 5.52993e-10) (9.19442e-09 -8.01559e-09 8.62992e-10) (9.8234e-09 -8.58262e-09 1.44977e-09) (9.97555e-09 -8.67983e-09 7.83407e-10) (1.00565e-08 -8.75901e-09 1.61571e-09)
500           (7.47323e-11 -8.39967e-11 7.61086e-11) (1.6375e-09 -1.34322e-09 8.26824e-10) (2.67866e-09 -2.45601e-09 3.31605e-10) (4.33562e-09 -3.93583e-09 5.11314e-10) (5.94698e-09 -5.11892e-09 8.39121e-10) (7.13954e-09 -6.61397e-09 1.02506e-09) (8.33394e-09 -7.54705e-09 1.06018e-09) (9.27074e-09 -8.11856e-09 2.88547e-10) (9.99276e-09 -8.53818e-09 8.10092e-10) (1.03292e-08 -8.84607e-09 1.19716e-09) (1.05914e-08 -8.86383e-09 1.47396e-09)
550           (1.96541e-10 -1.61814e-10 1.09426e-11) (1.64821e-09 -1.38365e-09 2.4075e-10) (2.90365e-09 -2.70208e-09 -1.45956e-10) (4.6183e-09 -4.0131e-09 2.25584e-11) (6.07114e-09 -5.66253e-09 2.18076e-10) (7.52362e-09 -6.93392e-09 6.77789e-12) (8.87234e-09 -7.82533e-09 5.407e-10) (9.60002e-09 -8.32445e-09 1.26591e-09) (1.01829e-08 -9.06264e-09 1.28179e-09) (1.0736e-08 -9.19938e-09 1.05155e-09) (1.07056e-08 -9.19411e-09 1.03425e-09)
600           (1.67032e-10 -2.19215e-11 -2.67269e-10) (1.63093e-09 -1.32189e-09 -3.86005e-10) (2.97796e-09 -2.74533e-09 -9.29297e-11) (4.69231e-09 -4.13642e-09 -1.71813e-10) (6.39296e-09 -5.4985e-09 1.98108e-10) (7.63333e-09 -6.95073e-09 3.1181e-10) (8.73381e-09 -7.84322e-09 5.49887e-10) (9.72857e-09 -8.66919e-09 7.88971e-10) (1.04346e-08 -8.85352e-09 1.28717e-09) (1.07423e-08 -9.38509e-09 1.79584e-09) (1.08306e-08 -9.34423e-09 1.92475e-09)
650           (1.3816e-10 -9.30814e-11 2.00552e-10) (1.515e-09 -1.60184e-09 3.73775e-10) (3.1036e-09 -2.90356e-09 8.51557e-10) (4.59804e-09 -4.32457e-09 1.37823e-09) (6.34748e-09 -5.56225e-09 1.57962e-09) (7.82861e-09 -7.14142e-09 1.72808e-09) (9.04679e-09 -7.89819e-09 1.48051e-09) (9.99094e-09 -8.56447e-09 1.50907e-09) (1.05056e-08 -9.28244e-09 1.43469e-09) (1.07538e-08 -9.48837e-09 1.46539e-09) (1.11911e-08 -9.57346e-09 2.38414e-09)
700           (5.16443e-11 -1.44835e-10 1.00609e-10) (1.52289e-09 -1.59696e-09 8.60403e-11) (3.08845e-09 -2.86008e-09 2.23104e-10) (4.62136e-09 -4.31463e-09 1.44528e-11) (6.26265e-09 -5.80688e-09 -1.54312e-12) (7.60237e-09 -7.11105e-09 1.34753e-10) (9.12179e-09 -8.18493e-09 1.57471e-10) (1.00101e-08 -9.07301e-09 4.56349e-10) (1.07986e-08 -9.50201e-09 8.32808e-10) (1.12896e-08 -9.71434e-09 5.74783e-10) (1.13175e-08 -9.7318e-09 -3.90956e-10)
750           (1.11659e-10 -3.73064e-11 -4.80453e-11) (1.84925e-09 -1.28866e-09 8.34738e-11) (3.38249e-09 -2.92e-09 6.15268e-10) (4.93683e-09 -4.55838e-09 -8.43298e-12) (6.65168e-09 -5.73024e-09 2.91601e-10) (8.13685e-09 -7.26867e-09 -1.57983e-10) (8.99934e-09 -8.22725e-09 3.91388e-10) (9.82487e-09 -8.89881e-09 8.16386e-10) (1.08289e-08 -9.66212e-09 1.19925e-09) (1.12212e-08 -1.00751e-08 1.63033e-09) (1.12171e-08 -9.84822e-09 2.31934e-09)
800           (9.24887e-11 -6.24093e-11 -9.74754e-11) (1.64492e-09 -1.45336e-09 2.86467e-10) (3.41281e-09 -3.12372e-09 -2.10512e-10) (5.17155e-09 -4.5597e-09 4.25282e-10) (6.69159e-09 -5.86119e-09 8.90875e-10) (7.95604e-09 -7.07739e-09 6.87391e-10) (9.29557e-09 -8.31157e-09 8.27998e-10) (1.00995e-08 -9.19984e-09 9.68912e-10) (1.09607e-08 -9.93147e-09 9.22204e-10) (1.12548e-08 -1.0016e-08 5.54115e-10) (1.14071e-08 -9.88356e-09 2.05095e-09)
850           (1.43814e-10 -8.50343e-11 2.65062e-11) (1.7159e-09 -1.53041e-09 -3.73589e-10) (3.19037e-09 -2.79297e-09 -3.82958e-11) (4.98659e-09 -4.26947e-09 6.37112e-11) (6.504e-09 -5.97516e-09 1.50423e-11) (8.01326e-09 -7.38134e-09 1.92506e-10) (9.22423e-09 -8.36646e-09 5.16417e-10) (1.03469e-08 -9.37687e-09 2.89602e-10) (1.13041e-08 -9.91227e-09 1.39555e-09) (1.17465e-08 -1.00832e-08 7.11572e-10) (1.15597e-08 -9.83183e-09 2.48457e-10)
900           (1.07977e-10 -1.11778e-10 2.38361e-11) (1.71172e-09 -1.52109e-09 -8.87896e-10) (3.23113e-09 -2.95345e-09 -6.71371e-10) (4.9655e-09 -4.72499e-09 -4.74043e-10) (6.4803e-09 -6.17685e-09 -3.77253e-10) (7.74186e-09 -7.32499e-09 -1.00869e-09) (9.22631e-09 -8.20586e-09 1.3419e-10) (1.01069e-08 -9.16278e-09 -1.16266e-10) (1.10615e-08 -9.70327e-09 -1.9778e-10) (1.15269e-08 -1.00371e-08 -1.97822e-11) (1.15071e-08 -1.01382e-08 1.12733e-09)
950           (1.07311e-10 -8.79552e-12 -2.77083e-11) (1.74848e-09 -1.54481e-09 -1.52881e-11) (3.00374e-09 -2.9005e-09 4.22798e-10) (4.73191e-09 -4.51025e-09 4.51111e-12) (6.37412e-09 -5.92167e-09 3.32497e-10) (8.13233e-09 -7.18694e-09 5.28093e-10) (9.59967e-09 -8.27452e-09 1.3629e-09) (1.03949e-08 -9.20316e-09 9.48796e-10) (1.11821e-08 -9.72592e-09 9.33102e-10) (1.16839e-08 -9.93884e-09 1.69714e-09) (1.17144e-08 -9.98421e-09 6.13838e-10)
1000          (7.00366e-11 -1.44691e-10 -7.0694e-11) (1.84015e-09 -1.80866e-09 2.23755e-10) (3.3828e-09 -3.10821e-09 1.41671e-10) (5.02127e-09 -4.55519e-09 6.21029e-10) (6.49493e-09 -6.00693e-09 1.40681e-10) (8.06951e-09 -7.35563e-09 9.65863e-10) (9.29194e-09 -8.42926e-09 1.35747e-09) (1.02392e-08 -9.29406e-09 1.24577e-09) (1.11303e-08 -9.76559e-09 1.17442e-09) (1.13687e-08 -1.00904e-08 1.99578e-09) (1.18536e-08 -1.01103e-08 2.35949e-09)
1050          (1.19422e-10 -2.64741e-11 -5.84739e-11) (1.88273e-09 -1.31591e-09 -2.25409e-12) (3.52713e-09 -3.01978e-09 6.56611e-10) (5.21222e-09 -4.90723e-09 7.26386e-10) (6.88501e-09 -6.06395e-09 9.8174e-10) (8.18089e-09 -7.45198e-09 1.13158e-09) (9.34133e-09 -8.28407e-09 1.38063e-09) (1.03342e-08 -9.4442e-09 1.92545e-09) (1.11276e-08 -1.00797e-08 2.36976e-09) (1.16249e-08 -9.84548e-09 1.69209e-09) (1.19255e-08 -1.00639e-08 3.54483e-09)
1100          (1.79977e-10 -8.79446e-11 -7.81285e-11) (1.74138e-09 -1.59299e-09 4.19186e-10) (3.46568e-09 -3.18354e-09 -6.74295e-10) (5.17896e-09 -4.75139e-09 -7.70611e-10) (6.68954e-09 -6.11198e-09 4.60863e-10) (8.2582e-09 -7.31548e-09 4.36261e-10) (9.49781e-09 -8.55969e-09 3.89256e-10) (1.04497e-08 -9.21242e-09 7.44894e-10) (1.1292e-08 -9.84111e-09 9.9268e-10) (1.18049e-08 -1.02976e-08 7.1583e-10) (1.19647e-08 -1.02686e-08 8.87823e-10)
1150          (1.35589e-10 -1.21885e-10 7.67634e-12) (1.69092e-09 -1.50892e-09 -1.23862e-11) (3.14985e-09 -3.27183e-09 9.49354e-10) (4.87277e-09 -4.81813e-09 8.12084e-10) (6.62283e-09 -6.33028e-09 1.0019e-09) (8.28937e-09 -7.55329e-09 1.16381e-09) (9.73066e-09 -8.67424e-09 1.15682e-09) (1.05155e-08 -9.45522e-09 1.38189e-09) (1.12964e-08 -9.89194e-09 1.13473e-09) (1.17264e-08 -1.01089e-08 1.7192e-09) (1.18578e-08 -1.00177e-08 1.63971e-09)
1200          (-6.03411e-12 -9.21333e-11 -2.06001e-10) (1.47961e-09 -1.2964e-09 -1.55247e-10) (3.54149e-09 -2.8845e-09 -8.49222e-12) (5.10644e-09 -4.43437e-09 -2.55571e-11) (6.8369e-09 -6.14819e-09 -1.63183e-10) (8.53221e-09 -7.42749e-09 -5.26383e-10) (9.56024e-09 -8.45809e-09 9.63834e-10) (1.04207e-08 -9.12665e-09 1.71939e-13) (1.11891e-08 -9.83038e-09 1.1659e-10) (1.1643e-08 -1.03184e-08 2.3891e-10) (1.19424e-08 -1.01695e-08 5.47576e-10)
1250          (1.28237e-10 -8.10896e-11 2.15397e-10) (1.61528e-09 -1.3227e-09 5.42691e-10) (3.28838e-09 -2.97788e-09 5.78377e-10) (5.15707e-09 -4.51213e-09 6.67436e-10) (6.82242e-09 -6.14212e-09 8.21205e-10) (8.37905e-09 -7.37944e-09 6.08027e-10) (9.90559e-09 -8.63579e-09 1.36023e-09) (1.06602e-08 -9.47802e-09 1.06088e-09) (1.12689e-08 -9.8465e-09 1.0756e-09) (1.18019e-08 -1.01068e-08 1.40956e-09) (1.21076e-08 -1.04537e-08 2.21183e-09)
1300          (3.46663e-11 -3.83033e-11 1.74126e-11) (1.59926e-09 -1.60899e-09 -9.88351e-11) (3.39409e-09 -3.06466e-09 -2.09384e-10) (5.2091e-09 -4.59388e-09 6.06293e-11) (6.82846e-09 -5.9937e-09 6.2388e-10) (8.49386e-09 -7.33833e-09 8.58977e-10) (9.61087e-09 -8.20153e-09 9.14718e-10) (1.05693e-08 -9.4905e-09 1.32791e-09) (1.14371e-08 -9.91583e-09 1.06613e-09) (1.16396e-08 -1.02772e-08 1.76123e-09) (1.17783e-08 -1.01774e-08 3.68038e-09)
1350          (1.17182e-10 -9.72242e-11 2.99564e-11) (1.81507e-09 -1.40829e-09 2.50082e-10) (3.45942e-09 -2.9646e-09 6.88538e-10) (5.00041e-09 -4.59424e-09 -2.86195e-10) (6.84508e-09 -6.04476e-09 -1.85069e-10) (8.43226e-09 -7.45245e-09 1.79131e-10) (9.77343e-09 -8.61906e-09 5.70646e-10) (1.05412e-08 -9.56775e-09 2.9792e-10) (1.1423e-08 -9.90864e-09 7.82739e-10) (1.17766e-08 -9.96899e-09 4.36563e-10) (1.19123e-08 -1.0155e-08 8.54841e-10)
1400          (9.114e-11 -7.54096e-11 -3.53092e-11) (1.55356e-09 -1.24685e-09 1.9797e-10) (3.57944e-09 -3.24514e-09 2.39865e-10) (5.02343e-09 -4.71062e-09 -3.07306e-10) (6.77823e-09 -6.07383e-09 3.52537e-10) (8.50425e-09 -7.47177e-09 2.98458e-12) (9.66543e-09 -8.72691e-09 6.28736e-10) (1.04972e-08 -9.34159e-09 5.54737e-11) (1.12026e-08 -9.92797e-09 6.58648e-10) (1.1684e-08 -1.0179e-08 4.55092e-10) (1.21565e-08 -1.03828e-08 7.27522e-10)
1450          (2.05279e-10 -5.30408e-11 8.09586e-11) (1.86038e-09 -1.38078e-09 -6.13293e-10) (3.29129e-09 -2.90506e-09 -2.93344e-10) (5.02468e-09 -4.78781e-09 -4.38868e-10) (6.85101e-09 -6.18191e-09 2.12323e-10) (8.6844e-09 -7.29067e-09 7.77681e-12) (9.58194e-09 -8.58832e-09 2.18219e-10) (1.05717e-08 -9.42409e-09 -6.87111e-11) (1.15177e-08 -1.00277e-08 2.23451e-10) (1.18954e-08 -1.03051e-08 8.26366e-10) (1.19089e-08 -1.02486e-08 5.43533e-10)
1500          (1.03664e-10 -1.14731e-10 8.10292e-11) (1.62569e-09 -1.42389e-09 -1.68175e-10) (3.35476e-09 -2.87855e-09 9.9613e-10) (5.11331e-09 -4.65887e-09 1.07159e-09) (6.76904e-09 -6.21932e-09 1.13213e-09) (8.41572e-09 -7.49799e-09 1.33225e-09) (9.63683e-09 -8.57279e-09 9.85624e-10) (1.08602e-08 -9.28669e-09 7.61526e-10) (1.14921e-08 -9.95876e-09 1.01655e-09) (1.18563e-08 -1.01775e-08 1.03804e-09) (1.19787e-08 -1.0379e-08 1.54309e-09)
1550          (1.75005e-10 -6.5191e-11 -6.87858e-11) (1.76605e-09 -1.32213e-09 6.56072e-11) (3.31671e-09 -2.86053e-09 -2.61191e-11) (5.01436e-09 -4.59742e-09 -1.88155e-10) (6.97828e-09 -6.06506e-09 8.33208e-11) (8.67669e-09 -7.56546e-09 6.86114e-12) (9.68379e-09 -8.54163e-09 4.6408e-10) (1.05131e-08 -9.35271e-09 7.30816e-10) (1.15822e-08 -9.93058e-09 1.10355e-09) (1.199e-08 -1.01765e-08 9.05554e-10) (1.18743e-08 -1.02706e-08 1.11817e-09)
1600          (1.14668e-10 -5.37111e-11 4.97739e-12) (1.69135e-09 -1.63132e-09 3.71484e-10) (3.51587e-09 -2.98861e-09 7.06744e-10) (5.17591e-09 -4.43075e-09 1.9861e-10) (6.86244e-09 -6.04565e-09 2.79806e-10) (8.4419e-09 -7.52018e-09 7.41698e-10) (9.77439e-09 -8.44007e-09 8.51057e-10) (1.06072e-08 -9.26966e-09 1.43831e-09) (1.11504e-08 -9.66667e-09 7.7737e-10) (1.17497e-08 -1.01402e-08 1.46599e-09) (1.20671e-08 -1.03625e-08 2.15035e-09)
1650          (9.66437e-11 -1.35176e-10 2.18597e-10) (1.86615e-09 -1.74399e-09 -2.80994e-10) (3.35652e-09 -3.15425e-09 2.90762e-10) (4.92246e-09 -4.52652e-09 -4.13697e-11) (6.74573e-09 -6.04637e-09 9.52128e-10) (8.49536e-09 -7.37073e-09 4.32412e-10) (9.67352e-09 -8.53002e-09 2.13605e-10) (1.06539e-08 -9.24807e-09 3.8758e-10) (1.13254e-08 -9.94989e-09 1.2622e-10) (1.19857e-08 -1.02173e-08 7.16343e-10) (1.2228e-08 -1.02422e-08 1.59881e-09)
1700          (5.86783e-11 -5.4666e-11 8.34654e-11) (1.47947e-09 -1.55291e-09 2.2988e-10) (3.35151e-09 -2.99815e-09 8.90536e-11) (5.03691e-09 -4.56361e-09 2.85252e-10) (7.11222e-09 -6.01105e-09 6.63003e-10) (8.42166e-09 -7.52567e-09 5.09907e-10) (9.72461e-09 -8.63918e-09 7.62435e-10) (1.08011e-08 -9.0495e-09 2.16229e-10) (1.13603e-08 -9.9504e-09 5.62168e-10) (1.19855e-08 -1.00985e-08 5.42215e-10) (1.20101e-08 -1.02808e-08 1.29635e-09)
1750          (1.09602e-10 -7.5829e-11 2.50956e-11) (1.62842e-09 -1.39046e-09 2.22643e-10) (3.36637e-09 -3.23494e-09 4.28628e-10) (5.00623e-09 -4.63389e-09 2.03916e-10) (6.72297e-09 -6.17304e-09 8.61593e-10) (8.41011e-09 -7.37084e-09 3.98988e-10) (9.70217e-09 -8.61074e-09 1.00518e-09) (1.05937e-08 -9.33412e-09 8.20094e-10) (1.15567e-08 -9.88732e-09 5.19846e-10) (1.21932e-08 -1.0505e-08 1.2577e-09) (1.21526e-08 -1.03767e-08 1.2649e-09)
1800          (1.16322e-10 -8.71377e-11 -4.27367e-11) (1.6127e-09 -1.63515e-09 2.57483e-10) (3.62986e-09 -3.0912e-09 1.44455e-10) (5.10124e-09 -4.67797e-09 4.421e-10) (6.94225e-09 -6.23167e-09 6.69143e-10) (8.44619e-09 -7.30421e-09 6.1611e-10) (9.73531e-09 -8.51174e-09 6.21989e-10) (1.07447e-08 -9.37721e-09 7.54385e-10) (1.1299e-08 -1.01224e-08 1.00256e-09) (1.16059e-08 -1.03534e-08 1.15707e-09) (1.17658e-08 -1.01894e-08 1.08445e-09)
1850          (9.79507e-11 -6.74803e-11 1.08958e-10) (1.56559e-09 -1.40323e-09 1.61904e-11) (3.17621e-09 -2.88202e-09 8.76518e-11) (5.16061e-09 -4.63433e-09 1.3257e-10) (6.78503e-09 -6.10227e-09 -2.8853e-11) (8.14887e-09 -7.33956e-09 3.48024e-10) (9.63535e-09 -8.30806e-09 2.592e-10) (1.07763e-08 -9.20961e-09 2.93685e-10) (1.15535e-08 -1.00524e-08 4.67823e-10) (1.18922e-08 -1.01602e-08 -1.78647e-10) (1.20292e-08 -1.02494e-08 -4.64244e-10)
1900          (1.21569e-10 -1.03632e-10 1.37251e-10) (1.54797e-09 -1.6004e-09 2.15899e-10) (3.56879e-09 -3.09895e-09 7.48432e-10) (5.29687e-09 -4.80065e-09 6.73842e-10) (6.84607e-09 -6.28607e-09 1.20909e-09) (8.50708e-09 -7.69863e-09 1.41333e-09) (9.66521e-09 -8.82995e-09 9.68333e-10) (1.06737e-08 -9.59503e-09 1.87392e-09) (1.15047e-08 -1.02731e-08 2.00837e-09) (1.19982e-08 -1.05052e-08 2.05904e-09) (1.21454e-08 -1.04071e-08 2.66936e-09)
1950          (5.01771e-11 -6.00244e-11 -4.07826e-11) (1.82146e-09 -1.48887e-09 1.08652e-10) (3.4981e-09 -3.15541e-09 2.20381e-10) (5.17191e-09 -4.48419e-09 8.93807e-10) (6.81747e-09 -6.12089e-09 7.43761e-10) (8.51198e-09 -7.44329e-09 4.73114e-10) (9.96378e-09 -8.69187e-09 6.24703e-10) (1.08516e-08 -9.71858e-09 4.04891e-10) (1.17373e-08 -1.01199e-08 9.32531e-10) (1.20008e-08 -1.02857e-08 6.84978e-10) (1.20501e-08 -1.03531e-08 7.90799e-10)
2000          (5.94081e-11 -9.56792e-11 4.83725e-11) (1.6946e-09 -1.43947e-09 4.79428e-11) (3.66784e-09 -3.16194e-09 1.60593e-10) (5.42897e-09 -4.61812e-09 -4.52517e-11) (6.86711e-09 -6.18689e-09 -2.96661e-10) (8.52897e-09 -7.57279e-09 3.63872e-10) (9.61926e-09 -8.63596e-09 1.4146e-10) (1.07612e-08 -9.34442e-09 -3.40737e-10) (1.13309e-08 -9.93537e-09 -4.34347e-11) (1.20801e-08 -1.04852e-08 2.97848e-10) (1.22937e-08 -1.05636e-08 1.86888e-10)
2050          (6.49032e-11 -9.34433e-11 1.76639e-10) (1.58846e-09 -1.5656e-09 3.09237e-10) (3.16084e-09 -3.02923e-09 6.95713e-10) (5.14762e-09 -4.53439e-09 9.68801e-11) (6.95659e-09 -6.19735e-09 8.18148e-10) (8.20032e-09 -7.6091e-09 8.13945e-10) (9.64815e-09 -8.63547e-09 1.03701e-09) (1.08292e-08 -9.54529e-09 1.5027e-09) (1.14998e-08 -1.01237e-08 1.30266e-09) (1.17355e-08 -1.01177e-08 1.1987e-09) (1.21078e-08 -1.00385e-08 2.07415e-09)
2100          (8.19921e-11 -3.45814e-11 2.21826e-11) (1.81247e-09 -1.6658e-09 7.52571e-11) (3.40613e-09 -2.96969e-09 5.49776e-10) (5.09821e-09 -4.58202e-09 5.17797e-10) (6.95798e-09 -6.09718e-09 1.95538e-10) (8.45135e-09 -7.49053e-09 -1.27043e-10) (9.82818e-09 -8.70236e-09 -1.49496e-10) (1.08181e-08 -9.56264e-09 1.56801e-10) (1.17266e-08 -1.01106e-08 7.53092e-10) (1.18475e-08 -1.03775e-08 6.90155e-10) (1.2191e-08 -1.02467e-08 1.81226e-09)
2150          (3.00704e-12 -8.61722e-11 8.76415e-11) (1.55179e-09 -1.65021e-09 -3.20307e-10) (3.43827e-09 -3.11956e-09 8.75079e-10) (5.03029e-09 -4.81124e-09 7.63781e-10) (6.60092e-09 -6.0652e-09 -4.98462e-11) (8.42715e-09 -7.62387e-09 2.66801e-10) (9.75195e-09 -8.66145e-09 6.50528e-10) (1.06006e-08 -9.47741e-09 3.75918e-10) (1.14535e-08 -9.83305e-09 9.5642e-10) (1.20039e-08 -1.02866e-08 1.24302e-09) (1.22342e-08 -1.03803e-08 1.0443e-09)
2200          (2.83476e-11 -7.91462e-11 5.61183e-11) (1.78714e-09 -1.68056e-09 1.13724e-10) (3.62065e-09 -3.17257e-09 3.32105e-10) (5.37599e-09 -4.60606e-09 -4.74146e-11) (6.81522e-09 -6.15645e-09 -1.18734e-10) (8.58662e-09 -7.44246e-09 -1.20332e-09) (9.65345e-09 -8.48746e-09 -7.0765e-10) (1.06638e-08 -9.31834e-09 -1.10622e-09) (1.15511e-08 -9.94517e-09 -1.84681e-10) (1.17752e-08 -1.01742e-08 -1.76354e-10) (1.1915e-08 -1.02132e-08 1.5773e-10)
2250          (1.03652e-10 -4.57688e-11 1.24378e-10) (1.58159e-09 -1.36957e-09 -1.99838e-10) (3.43202e-09 -3.02333e-09 -8.89676e-11) (5.2568e-09 -4.59963e-09 -5.68568e-10) (6.98403e-09 -6.35506e-09 -2.60036e-10) (8.61122e-09 -7.52884e-09 -9.44115e-11) (9.81194e-09 -8.45765e-09 -2.93603e-13) (1.09905e-08 -9.40808e-09 -1.10576e-10) (1.17256e-08 -1.00819e-08 3.16551e-10) (1.21542e-08 -1.01404e-08 5.80335e-11) (1.20849e-08 -1.03415e-08 2.21279e-10)
2300          (1.81528e-10 -1.14639e-10 4.71545e-11) (1.80626e-09 -1.58114e-09 1.60931e-10) (3.58619e-09 -3.05141e-09 -2.44274e-10) (5.14325e-09 -4.49749e-09 1.86792e-10) (6.73325e-09 -6.00426e-09 7.04561e-10) (8.46843e-09 -7.44775e-09 1.09479e-09) (9.83292e-09 -8.4078e-09 9.17491e-10) (1.06393e-08 -9.10443e-09 7.53014e-10) (1.14351e-08 -9.8505e-09 8.68746e-10) (1.18134e-08 -1.03925e-08 9.81857e-10) (1.22829e-08 -1.04638e-08 2.80795e-10)
2350          (9.82749e-11 -1.94979e-11 -5.5556e-11) (1.76199e-09 -1.41778e-09 -2.47198e-10) (3.4082e-09 -3.12947e-09 -2.05976e-10) (5.22102e-09 -4.65111e-09 -6.54919e-10) (6.89083e-09 -6.18908e-09 -6.28216e-11) (8.27824e-09 -7.56818e-09 4.40809e-11) (9.66687e-09 -8.7098e-09 4.92467e-10) (1.06071e-08 -9.52969e-09 7.19771e-10) (1.15648e-08 -9.97141e-09 1.21166e-09) (1.21919e-08 -1.02648e-08 1.66188e-09) (1.225e-08 -1.03068e-08 1.02299e-09)
2400          (9.67255e-11 -1.17848e-10 6.78503e-11) (1.70981e-09 -1.74793e-09 3.19548e-10) (3.39598e-09 -3.39232e-09 8.93936e-10) (5.28104e-09 -4.77173e-09 4.64857e-10) (6.89418e-09 -6.11069e-09 6.34761e-10) (8.33647e-09 -7.43573e-09 2.942e-10) (9.66557e-09 -8.86063e-09 1.27781e-10) (1.07879e-08 -9.50021e-09 2.98083e-10) (1.1652e-08 -9.87094e-09 8.81456e-10) (1.20602e-08 -1.04373e-08 9.5401e-10) (1.18975e-08 -1.03094e-08 7.00697e-10)
2450          (3.50052e-11 -1.08344e-10 9.31076e-12) (1.84692e-09 -1.70191e-09 2.95904e-10) (3.55562e-09 -3.23377e-09 7.75313e-10) (4.91014e-09 -4.84552e-09 5.63268e-10) (6.78242e-09 -6.14063e-09 7.43259e-10) (8.37849e-09 -7.52846e-09 6.65758e-10) (9.71841e-09 -8.68229e-09 6.2822e-10) (1.08056e-08 -9.45624e-09 4.05269e-10) (1.14375e-08 -9.88545e-09 9.57553e-10) (1.18772e-08 -1.00579e-08 8.8034e-10) (1.21483e-08 -1.01861e-08 8.6149e-10)
2500          (5.06408e-11 -2.29271e-11 1.01425e-10) (1.64593e-09 -1.63786e-09 6.96937e-12) (3.41067e-09 -3.23856e-09 -2.13864e-10) (5.29811e-09 -4.77772e-09 -4.74985e-10) (6.78507e-09 -6.09711e-09 -2.42779e-10) (8.45791e-09 -7.39793e-09 2.73737e-10) (9.73316e-09 -8.58603e-09 1.06981e-10) (1.07156e-08 -9.39498e-09 5.7214e-10) (1.14748e-08 -1.02605e-08 1.59026e-11) (1.20361e-08 -1.03805e-08 -7.20922e-11) (1.20377e-08 -1.04196e-08 7.59053e-11)
2550          (8.29285e-11 -1.8057e-10 -5.70895e-11) (1.53494e-09 -1.66865e-09 7.15554e-10) (3.37287e-09 -3.09178e-09 1.52536e-09) (5.37645e-09 -4.75213e-09 1.06352e-09) (6.91359e-09 -6.14401e-09 1.3602e-09) (8.32779e-09 -7.51444e-09 1.20747e-09) (9.45341e-09 -8.44633e-09 1.42081e-09) (1.07793e-08 -9.47344e-09 9.28714e-10) (1.1668e-08 -9.98605e-09 7.21519e-10) (1.18938e-08 -1.01414e-08 7.7749e-10) (1.18832e-08 -1.02521e-08 9.4834e-10)
2600          (9.85323e-11 -7.30422e-11 -5.96356e-11) (1.75538e-09 -1.5889e-09 -2.29555e-10) (3.56101e-09 -3.23319e-09 2.34163e-10) (5.52808e-09 -4.97234e-09 -4.02761e-10) (6.96431e-09 -6.23341e-09 -1.25284e-11) (8.53808e-09 -7.25307e-09 -6.56297e-11) (9.79186e-09 -8.56125e-09 5.51931e-11) (1.06837e-08 -9.48603e-09 9.24905e-10) (1.14542e-08 -1.01266e-08 5.33003e-10) (1.17739e-08 -1.02767e-08 4.06167e-10) (1.19235e-08 -1.02087e-08 1.00171e-09)
2650          (3.53059e-13 7.12833e-11 1.44173e-10) (1.67324e-09 -1.33225e-09 2.95397e-10) (3.59332e-09 -3.115e-09 5.03288e-10) (5.15103e-09 -4.64668e-09 5.56022e-10) (6.73975e-09 -6.16721e-09 1.01033e-09) (8.48242e-09 -7.47807e-09 1.1305e-09) (9.82593e-09 -8.70207e-09 8.67634e-10) (1.05627e-08 -9.47806e-09 1.13095e-09) (1.13258e-08 -1.00895e-08 1.88467e-09) (1.20663e-08 -1.04538e-08 1.4352e-09) (1.22166e-08 -1.05466e-08 1.60195e-09)
2700          (-2.53293e-11 -1.6606e-10 1.5542e-10) (1.31911e-09 -1.53758e-09 -1.82209e-10) (3.49356e-09 -2.76084e-09 9.98575e-11) (5.25787e-09 -4.66015e-09 3.94507e-10) (6.72995e-09 -6.24841e-09 5.49115e-10) (8.24958e-09 -7.51334e-09 9.33799e-10) (9.83855e-09 -8.83786e-09 7.15552e-10) (1.07051e-08 -9.53317e-09 1.07802e-09) (1.13947e-08 -1.00378e-08 1.20995e-09) (1.19061e-08 -1.00743e-08 1.45965e-09) (1.18277e-08 -1.01018e-08 2.02088e-09)
2750          (1.92324e-10 -1.17253e-10 -4.94284e-11) (1.86009e-09 -1.55937e-09 -3.23637e-10) (3.59078e-09 -2.89651e-09 -2.02705e-10) (5.34908e-09 -4.47738e-09 3.08159e-10) (6.96487e-09 -6.25087e-09 2.26866e-11) (8.52734e-09 -7.71865e-09 5.54426e-10) (9.66498e-09 -8.57519e-09 3.5924e-10) (1.07078e-08 -9.54232e-09 9.62867e-10) (1.13194e-08 -1.01213e-08 6.89683e-10) (1.16396e-08 -1.04122e-08 7.12897e-10) (1.18692e-08 -1.04157e-08 1.69741e-10)
2800          (6.87533e-11 -1.93716e-11 1.45447e-10) (1.83766e-09 -1.52243e-09 -2.09859e-11) (3.52706e-09 -3.12172e-09 8.37219e-10) (5.14488e-09 -4.71873e-09 7.95307e-10) (7.00892e-09 -6.19229e-09 1.78687e-09) (8.43492e-09 -7.26739e-09 2.01993e-09) (9.72275e-09 -8.55458e-09 2.09626e-09) (1.07227e-08 -9.59386e-09 1.70324e-09) (1.12393e-08 -1.01407e-08 2.15556e-09) (1.18433e-08 -1.02581e-08 1.97135e-09) (1.20367e-08 -1.03818e-08 1.26677e-09)
2850          (1.13902e-10 -2.17724e-10 -1.68809e-10) (1.49564e-09 -1.69567e-09 -6.11794e-11) (3.50299e-09 -3.26778e-09 -1.43995e-10) (5.36106e-09 -4.61729e-09 2.46908e-10) (7.22219e-09 -6.33675e-09 -3.31801e-10) (8.39913e-09 -7.4226e-09 -1.71568e-10) (9.63893e-09 -8.56083e-09 -7.45901e-10) (1.08463e-08 -9.27416e-09 -2.33883e-10) (1.14001e-08 -9.88763e-09 -4.30167e-10) (1.18098e-08 -1.02845e-08 8.20055e-11) (1.20444e-08 -1.04653e-08 -4.97367e-11)
2900          (1.15992e-10 -7.99486e-11 7.64319e-11) (1.69779e-09 -1.58834e-09 1.55408e-10) (3.56449e-09 -3.05653e-09 6.4987e-10) (5.30434e-09 -4.43787e-09 6.02051e-10) (6.99891e-09 -6.15791e-09 4.00861e-10) (8.23419e-09 -7.42112e-09 6.00546e-10) (9.58383e-09 -8.62143e-09 9.14324e-10) (1.07031e-08 -9.62645e-09 9.06194e-10) (1.13364e-08 -1.03185e-08 8.60945e-10) (1.17186e-08 -1.02622e-08 1.52907e-09) (1.19378e-08 -1.03781e-08 1.0582e-09)
2950          (7.76182e-11 -6.26168e-11 -4.16216e-11) (1.71901e-09 -1.56094e-09 -2.2713e-10) (3.54608e-09 -3.09212e-09 2.62302e-10) (5.25783e-09 -4.56987e-09 -1.24857e-10) (7.30468e-09 -6.03261e-09 -8.09471e-10) (8.62423e-09 -7.32078e-09 -2.95986e-10) (9.68067e-09 -8.59873e-09 -4.47334e-10) (1.07433e-08 -9.45675e-09 2.0455e-10) (1.13254e-08 -9.98298e-09 3.58192e-10) (1.21056e-08 -1.01658e-08 2.72378e-10) (1.20381e-08 -1.02786e-08 1.67359e-09)
3000          (8.13677e-11 -9.6847e-12 1.08335e-11) (1.47365e-09 -1.38358e-09 3.29227e-10) (3.21402e-09 -3.23692e-09 9.47128e-10) (4.94463e-09 -4.6587e-09 1.07256e-09) (6.96948e-09 -6.11914e-09 1.42969e-09) (8.54967e-09 -7.52628e-09 2.14553e-09) (9.46622e-09 -8.5615e-09 2.59749e-09) (1.05763e-08 -9.47571e-09 2.46303e-09) (1.13736e-08 -1.00943e-08 2.24782e-09) (1.16404e-08 -1.02822e-08 2.94431e-09) (1.18432e-08 -1.03953e-08 4.19777e-09)
3050          (9.81164e-11 -3.60412e-11 9.00395e-12) (1.60577e-09 -1.21066e-09 9.63178e-11) (3.38614e-09 -3.05775e-09 2.19763e-10) (5.12057e-09 -4.4495e-09 3.50648e-10) (6.69433e-09 -6.0728e-09 3.78527e-10) (8.18938e-09 -7.28709e-09 3.93012e-10) (9.64046e-09 -8.59172e-09 5.81024e-10) (1.05955e-08 -9.30383e-09 4.90215e-10) (1.12263e-08 -1.00079e-08 7.87128e-10) (1.14597e-08 -1.03009e-08 1.27662e-09) (1.18442e-08 -1.01958e-08 8.9272e-10)
3100          (7.94529e-11 -6.88494e-11 1.72488e-10) (1.53064e-09 -1.58494e-09 -4.56926e-11) (3.49365e-09 -2.98671e-09 2.88783e-10) (5.3382e-09 -4.42743e-09 5.26652e-10) (7.09464e-09 -6.0655e-09 4.21676e-10) (8.20855e-09 -7.4725e-09 1.39004e-10) (9.46726e-09 -8.35237e-09 2.09713e-10) (1.04446e-08 -9.38932e-09 -3.29748e-11) (1.11644e-08 -9.87808e-09 -1.03204e-10) (1.19027e-08 -1.01239e-08 -1.87198e-10) (1.19938e-08 -1.03333e-08 3.92084e-10)
3150          (1.158e-10 -8.20807e-11 9.1311e-12) (1.72349e-09 -1.32367e-09 2.16319e-10) (3.54813e-09 -2.91527e-09 3.34032e-10) (4.94286e-09 -4.6262e-09 9.89881e-10) (6.78664e-09 -6.16216e-09 1.17711e-09) (8.38266e-09 -7.52064e-09 1.51876e-09) (9.82707e-09 -8.72412e-09 8.18224e-10) (1.05461e-08 -9.46701e-09 1.00285e-09) (1.13317e-08 -1.01271e-08 8.0403e-10) (1.17418e-08 -1.01286e-08 -1.25366e-10) (1.21053e-08 -1.02421e-08 -2.7363e-10)
3200          (3.44561e-11 -5.21983e-11 -1.68352e-10) (1.81632e-09 -1.52036e-09 7.20562e-11) (3.20375e-09 -3.0897e-09 1.55813e-10) (4.95079e-09 -4.70656e-09 -3.53603e-13) (6.60897e-09 -5.9691e-09 -4.79912e-10) (8.33006e-09 -7.14936e-09 2.53672e-10) (9.48611e-09 -8.52543e-09 -5.2277e-10) (1.04645e-08 -9.38102e-09 4.80935e-10) (1.14156e-08 -1.00146e-08 5.2974e-10) (1.18754e-08 -1.01264e-08 1.24429e-09) (1.1966e-08 -1.04642e-08 2.3367e-09)
3250          (1.62408e-10 -1.05732e-10 3.44227e-11) (1.59367e-09 -1.55234e-09 -6.68935e-11) (3.3929e-09 -3.098e-09 6.05753e-12) (5.10229e-09 -4.68905e-09 8.68303e-10) (6.95104e-09 -6.24435e-09 1.21237e-09) (8.37694e-09 -7.3785e-09 1.02635e-09) (9.58712e-09 -8.42362e-09 1.09542e-09) (1.06979e-08 -9.33542e-09 1.22391e-09) (1.15671e-08 -1.00933e-08 1.49306e-09) (1.16852e-08 -1.03152e-08 1.57243e-09) (1.18842e-08 -1.02044e-08 1.76886e-09)
3300          (1.58663e-10 -2.64694e-11 -1.68906e-11) (1.81893e-09 -1.56661e-09 1.56767e-10) (3.60236e-09 -2.96263e-09 -5.62895e-10) (5.28307e-09 -4.68852e-09 -3.95052e-10) (7.03712e-09 -6.27759e-09 1.38576e-10) (8.34443e-09 -7.52279e-09 5.7974e-10) (9.65144e-09 -8.61244e-09 4.46977e-10) (1.0681e-08 -9.52417e-09 2.44652e-10) (1.13379e-08 -9.79695e-09 -1.30178e-10) (1.20367e-08 -1.02172e-08 3.20335e-11) (1.19422e-08 -1.0145e-08 2.31266e-10)