# Probe 0 (0.0015 0.0015 0)
# Probe 1 (0.0015 0.0015 0.002)
# Probe 2 (0.0015 0.0015 0.004)
# Probe 3 (0.0015 0.0015 0.006)
# Probe 4 (0.0015 0.0015 0.008)
# Probe 5 (0.0015 0.0015 0.01)
# Probe 6 (0.0015 0.0015 0.012)
# Probe 7 (0.0015 0.0015 0.014)
# Probe 8 (0.0015 0.0015 0.016)
# Probe 9 (0.0015 0.0015 0.018)
# Probe 10 (0.0015 0.0015 0.02)
# Time        0             1             2             3             4             5             6             7             8             9             10           
50            61270.9       61270.9       61270.9       61270.9       61270.9       61270.9       4563.25       4563.25       4563.25       4563.25       4563.25      
100           108376        108376        108376        108376        108376        108376        13525.1       13525.1       13525.1       13525.1       13525.1      
150           136563        136563        136563        136563        136563        136563        31061.4       31061.4       31061.4       31061.4       31061.4      
200           150925        150925        150925        150925        150925        150925        49401.3       49401.3       49401.3       49401.3       49401.3      
250           158601        158601        158601        158601        158601        158601        62532         62532         62532         62532         62532        
300           162884        162884        162884        162884        162884        162884        70079.8       70079.8       70079.8       70079.8       70079.8      
350           165115        165115        165115        165115        165115        165115        73859.5       73859.5       73859.5       73859.5       73859.5      
400           166190        166190        166190        166190        166190        166190        75612         75612         75612         75612         75612        
450           166682        166682        166682        166682        166682        166682        76394.3       76394.3       76394.3       76394.3       76394.3      
500           166901        166901        166901        166901        166901        166901        76737.3       76737.3       76737.3       76737.3       76737.3      
550           166997        166997        166997        166997        166997        166997        76886.5       76886.5       76886.5       76886.5       76886.5      
600           167038        167038        167038        167038        167038        167038        76949.8       76949.8       76949.8       76949.8       76949.8      
650           167056        167056        167056        167056        167056        167056        76977.9       76977.9       76977.9       76977.9       76977.9      
700           167063        167063        167063        167063        167063        167063        76989         76989         76989         76989         76989        
750           167067        167067        167067        167067        167067        167067        76994.8       76994.8       76994.8       76994.8       76994.8      
800           167068        167068        167068        167068        167068        167068        76995.9       76995.9       76995.9       76995.9       76995.9      
850           167068        167068        167068        167068        167068        167068        76997.1       76997.1       76997.1       76997.1       76997.1      
900           167068        167068        167068        167068        167068        167068        76997.1       76997.1       76997.1       76997.1       76997.1      
950           167068        167068        167068        167068        167068        167068        76997.1       76997.1       76997.1       76997.1       76997.1      
1000          167068        167068        167068        167068        167068        167068        76997.1       76997.1       76997.1       76997.1       76997.1      
1050          167068        167068        167068        167068        167068        167068        76997.1       76997.1       76997.1       76997.1       76997.1      
1100          167068        167068        167068        167068        167068        167068        76997.1       76997.1       76997.1       76997.1       76997.1      
1150          167068        167068        167068        167068        167068        167068        76997.1       76997.1       76997.1       76997.1       76997.1      
1200          167068        167068        167068        167068        167068        167068        76997.1       76997.1       76997.1       76997.1       76997.1      
1250          167068        167068        167068        167068        167068        167068        76997.1       76997.1       76997.1       76997.1       76997.1      
1300          167068        167068        167068        167068        167068        167068        76997.1       76997.1       76997.1       76997.1       76997.1      
1350          167068        167068        167068        167068        167068        167068        76997.1       76997.1       76997.1       76997.1       76997.1      
1400          167068        167068        167068        167068        167068        167068        76997.1       76997.1       76997.1       76997.1       76997.1      
1450          167068        167068        167068        167068        167068        167068        76997.1       76997.1       76997.1       76997.1       76997.1      
1500          167068        167068        167068        167068        167068        167068        76997.1       76997.1       76997.1       76997.1       76997.1      
1550          167068        167068        167068        167068        167068        167068        76997.1       76997.1       76997.1       76997.1       76997.1      
1600          167068        167068        167068        167068        167068        167068        76997.1       76997.1       76997.1       76997.1       76997.1      
1650          167068        167068        167068        167068        167068        167068        76997.1       76997.1       76997.1       76997.1       76997.1      
1700          167068        167068        167068        167068        167068        167068        76997.1       76997.1       76997.1       76997.1       76997.1      
1750          167068        167068        167068        167068        167068        167068        76997.1       76997.1       76997.1       76997.1       76997.1      
1800          167068        167068        167068        167068        167068        167068        76997.1       76997.1       76997.1       76997.1       76997.1      
1850          167068        167068        167068        167068        167068        167068        76997.1       76997.1       76997.1       76997.1       76997.1      
1900          167068        167068        167068        167068        167068        167068        76997.1       76997.1       76997.1       76997.1       76997.1      
1950          167068        167068        167068        167068        167068        167068        76997.1       76997.1       76997.1       76997.1       76997.1      
2000          167068        167068        167068        167068        167068        167068        76997.1       76997.1       76997.1       76997.1       76997.1      
2050          167068        167068        167068        167068        167068        167068        76997.1       76997.1       76997.1       76997.1       76997.1      
2100          167068        167068        167068        167068        167068        167068        76997.1       76997.1       76997.1       76997.1       76997.1      
2150          167068        167068        167068        167068        167068        167068        76997.1       76997.1       76997.1       76997.1       76997.1      
2200          167068        167068        167068        167068        167068        167068        76997.1       76997.1       76997.1       76997.1       76997.1      
2250          167068        167068        167068        167068        167068        167068        76997.1       76997.1       76997.1       76997.1       76997.1      
2300          167068        167068        167068        167068        167068        167068        76997.1       76997.1       76997.1       76997.1       76997.1      
2350          167068        167068        167068        167068        167068        167068        76997.1       76997.1       76997.1       76997.1       76997.1      
2400          167068        167068        167068        167068        167068        167068        76997.1       76997.1       76997.1       76997.1       76997.1      
2450          167068        167068        167068        167068        167068        167068        76997.1       76997.1       76997.1       76997.1       76997.1      
2500          167068        167068        167068        167068        167068        167068        76997.1       76997.1       76997.1       76997.1       76997.1      
2550          167068        167068        167068        167068        167068        167068        76997.1       76997.1       76997.1       76997.1       76997.1      
2600          167068        167068        167068        167068        167068        167068        76997.1       76997.1       76997.1       76997.1       76997.1      
2650          167068        167068        167068        167068        167068        167068        76997.1       76997.1       76997.1       76997.1       76997.1      
2700          167068        167068        167068        167068        167068        167068        76997.1       76997.1       76997.1       76997.1       76997.1      
2750          167068        167068        167068        167068        167068        167068        76997.1       76997.1       76997.1       76997.1       76997.1      
2800          167068        167068        167068        167068        167068        167068        76997.1       76997.1       76997.1       76997.1       76997.1      
2850          167068        167068        167068        167068        167068        167068        76997.1       76997.1       76997.1       76997.1       76997.1      
2900          167068        167068        167068        167068        167068        167068        76997.1       76997.1       76997.1       76997.1       76997.1      
2950          167068        167068        167068        167068        167068        167068        76997.1       76997.1       76997.1       76997.1       76997.1      
3000          167068        167068        167068        167068        167068        167068        76997.1       76997.1       76997.1       76997.1       76997.1      
3050          167068        167068        167068        167068        167068        167068        76997.1       76997.1       76997.1       76997.1       76997.1      
3100          167068        167068        167068        167068        167068        167068        76997.1       76997.1       76997.1       76997.1       76997.1      
3150          167068        167068        167068        167068        167068        167068        76997.1       76997.1       76997.1       76997.1       76997.1      
3200          167068        167068        167068        167068        167068        167068        76997.1       76997.1       76997.1       76997.1       76997.1      
3250          167068        167068        167068        167068        167068        167068        76997.1       76997.1       76997.1       76997.1       76997.1      
3300          167068        167068        167068        167068        167068        167068        76997.1       76997.1       76997.1       76997.1       76997.1      
3350          167068        167068        167068        167068        167068        167068        76997.1       76997.1       76997.1       76997.1       76997.1      
3400          167068        167068        167068        167068        167068        167068        76997.1       76997.1       76997.1       76997.1       76997.1      
3450          167068        167068        167068        167068        167068        167068        76997.1       76997.1       76997.1       76997.1       76997.1      
3500          167068        167068        167068        167068        167068        167068        76997.1       76997.1       76997.1       76997.1       76997.1      
3550          167068        167068        167068        167068        167068        167068        76997.1       76997.1       76997.1       76997.1       76997.1      
3600          167068        167068        167068        167068        167068        167068        76997.1       76997.1       76997.1       76997.1       76997.1      
3650          167068        167068        167068        167068        167068        167068        76997.1       76997.1       76997.1       76997.1       76997.1      
3700          167068        167068        167068        167068        167068        167068        76997.1       76997.1       76997.1       76997.1       76997.1      
3750          167068        167068        167068        167068        167068        167068        76997.1       76997.1       76997.1       76997.1       76997.1      
3800          167068        167068        167068        167068        167068        167068        76997.1       76997.1       76997.1       76997.1       76997.1      
3850          167068        167068        167068        167068        167068        167068        76997.1       76997.1       76997.1       76997.1       76997.1      
3900          167068        167068        167068        167068        167068        167068        76997.1       76997.1       76997.1       76997.1       76997.1      
3950          167068        167068        167068        167068        167068        167068        76997.1       76997.1       76997.1       76997.1       76997.1      
4000          167068        167068        167068        167068        167068        167068        76997.1       76997.1       76997.1       76997.1       76997.1      
4050          167068        167068        167068        167068        167068        167068        76997.1       76997.1       76997.1       76997.1       76997.1      
4100          167068        167068        167068        167068        167068        167068        76997.1       76997.1       76997.1       76997.1       76997.1      
4150          167068        167068        167068        167068        167068        167068        76997.1       76997.1       76997.1       76997.1       76997.1      
4200          167068        167068        167068        167068        167068        167068        76997.1       76997.1       76997.1       76997.1       76997.1      
4250          167068        167068        167068        167068        167068        167068        76997.1       76997.1       76997.1       76997.1       76997.1      
4300          167068        167068        167068        167068        167068        167068        76997.1       76997.1       76997.1       76997.1       76997.1      
4350          167068        167068        167068        167068        167068        167068        76997.1       76997.1       76997.1       76997.1       76997.1      
4400          167068        167068        167068        167068        167068        167068        76997.1       76997.1       76997.1       76997.1       76997.1      
4450          167068        167068        167068        167068        167068        167068        76997.1       76997.1       76997.1       76997.1       76997.1      
4500          167068        167068        167068        167068        167068        167068        76997.1       76997.1       76997.1       76997.1       76997.1      
4550          167068        167068        167068        167068        167068        167068        76997.1       76997.1       76997.1       76997.1       76997.1      
4600          167068        167068        167068        167068        167068        167068        76997.1       76997.1       76997.1       76997.1       76997.1      
4650          167068        167068        167068        167068        167068        167068        76997.1       76997.1       76997.1       76997.1       76997.1      
4700          167068        167068        167068        167068        167068        167068        76997.1       76997.1       76997.1       76997.1       76997.1      
4750          167068        167068        167068        167068        167068        167068        76997.1       76997.1       76997.1       76997.1       76997.1      
4800          167068        167068        167068        167068        167068        167068        76997.1       76997.1       76997.1       76997.1       76997.1      
4850          167068        167068        167068        167068        167068        167068        76997.1       76997.1       76997.1       76997.1       76997.1      
4900          167068        167068        167068        167068        167068        167068        76997.1       76997.1       76997.1       76997.1       76997.1      
4950          167068        167068        167068        167068        167068        167068        76997.1       76997.1       76997.1       76997.1       76997.1      
5000          167068        167068        167068        167068        167068        167068        76997.1       76997.1       76997.1       76997.1       76997.1      
