# Probe 0 (0.0015 0.0015 0)
# Probe 1 (0.0015 0.0015 0.002)
# Probe 2 (0.0015 0.0015 0.004)
# Probe 3 (0.0015 0.0015 0.006)
# Probe 4 (0.0015 0.0015 0.008)
# Probe 5 (0.0015 0.0015 0.01)
# Probe 6 (0.0015 0.0015 0.012)
# Probe 7 (0.0015 0.0015 0.014)
# Probe 8 (0.0015 0.0015 0.016)
# Probe 9 (0.0015 0.0015 0.018)
# Probe 10 (0.0015 0.0015 0.02)
# Time        0             1             2             3             4             5             6             7             8             9             10           
50            (-349.544 84.8869 10660.8) (-349.544 84.8869 10660.8) (-349.544 84.8869 10660.8) (-349.544 84.8869 10660.8) (-349.544 84.8869 10660.8) (-349.544 84.8869 10660.8) (-8.22566 -0.554463 1414.5) (-8.22566 -0.554463 1414.5) (-8.22566 -0.554463 1414.5) (-8.22566 -0.554463 1414.5) (-8.22566 -0.554463 1414.5)
100           (-554.63 148.591 9408.55) (-554.63 148.591 9408.55) (-554.63 148.591 9408.55) (-554.63 148.591 9408.55) (-554.63 148.591 9408.55) (-554.63 148.591 9408.55) (-26.0642 29.7622 3167.93) (-26.0642 29.7622 3167.93) (-26.0642 29.7622 3167.93) (-26.0642 29.7622 3167.93) (-26.0642 29.7622 3167.93)
150           (-722.987 145.954 8259.73) (-722.987 145.954 8259.73) (-722.987 145.954 8259.73) (-722.987 145.954 8259.73) (-722.987 145.954 8259.73) (-722.987 145.954 8259.73) (-121.488 68.925 4439.08) (-121.488 68.925 4439.08) (-121.488 68.925 4439.08) (-121.488 68.925 4439.08) (-121.488 68.925 4439.08)
200           (-802.265 163.447 7365.74) (-802.265 163.447 7365.74) (-802.265 163.447 7365.74) (-802.265 163.447 7365.74) (-802.265 163.447 7365.74) (-802.265 163.447 7365.74) (-237.585 83.3831 5258.2) (-237.585 83.3831 5258.2) (-237.585 83.3831 5258.2) (-237.585 83.3831 5258.2) (-237.585 83.3831 5258.2)
250           (-839.198 172.815 6778.71) (-839.198 172.815 6778.71) (-839.198 172.815 6778.71) (-839.198 172.815 6778.71) (-839.198 172.815 6778.71) (-839.198 172.815 6778.71) (-311.288 85.2066 5756.67) (-311.288 85.2066 5756.67) (-311.288 85.2066 5756.67) (-311.288 85.2066 5756.67) (-311.288 85.2066 5756.67)
300           (-858.85 176.98 6443.92) (-858.85 176.98 6443.92) (-858.85 176.98 6443.92) (-858.85 176.98 6443.92) (-858.85 176.98 6443.92) (-858.85 176.98 6443.92) (-350.082 90.1772 6038.81) (-350.082 90.1772 6038.81) (-350.082 90.1772 6038.81) (-350.082 90.1772 6038.81) (-350.082 90.1772 6038.81)
350           (-869.138 179.004 6274.5) (-869.138 179.004 6274.5) (-869.138 179.004 6274.5) (-869.138 179.004 6274.5) (-869.138 179.004 6274.5) (-869.138 179.004 6274.5) (-368.835 94.56 6183.01) (-368.835 94.56 6183.01) (-368.835 94.56 6183.01) (-368.835 94.56 6183.01) (-368.835 94.56 6183.01)
400           (-874.131 179.964 6195.11) (-874.131 179.964 6195.11) (-874.131 179.964 6195.11) (-874.131 179.964 6195.11) (-874.131 179.964 6195.11) (-874.131 179.964 6195.11) (-377.382 96.8224 6251.27) (-377.382 96.8224 6251.27) (-377.382 96.8224 6251.27) (-377.382 96.8224 6251.27) (-377.382 96.8224 6251.27)
450           (-876.431 180.406 6159.43) (-876.431 180.406 6159.43) (-876.431 180.406 6159.43) (-876.431 180.406 6159.43) (-876.431 180.406 6159.43) (-876.431 180.406 6159.43) (-381.17 97.816 6282.14) (-381.17 97.816 6282.14) (-381.17 97.816 6282.14) (-381.17 97.816 6282.14) (-381.17 97.816 6282.14)
500           (-877.458 180.6 6143.72) (-877.458 180.6 6143.72) (-877.458 180.6 6143.72) (-877.458 180.6 6143.72) (-877.458 180.6 6143.72) (-877.458 180.6 6143.72) (-382.825 98.2278 6295.79) (-382.825 98.2278 6295.79) (-382.825 98.2278 6295.79) (-382.825 98.2278 6295.79) (-382.825 98.2278 6295.79)
550           (-877.91 180.684 6136.87) (-877.91 180.684 6136.87) (-877.91 180.684 6136.87) (-877.91 180.684 6136.87) (-877.91 180.684 6136.87) (-877.91 180.684 6136.87) (-383.545 98.3992 6301.74) (-383.545 98.3992 6301.74) (-383.545 98.3992 6301.74) (-383.545 98.3992 6301.74) (-383.545 98.3992 6301.74)
600           (-878.1 180.719 6133.97) (-878.1 180.719 6133.97) (-878.1 180.719 6133.97) (-878.1 180.719 6133.97) (-878.1 180.719 6133.97) (-878.1 180.719 6133.97) (-383.847 98.4684 6304.27) (-383.847 98.4684 6304.27) (-383.847 98.4684 6304.27) (-383.847 98.4684 6304.27) (-383.847 98.4684 6304.27)
650           (-878.187 180.736 6132.68) (-878.187 180.736 6132.68) (-878.187 180.736 6132.68) (-878.187 180.736 6132.68) (-878.187 180.736 6132.68) (-878.187 180.736 6132.68) (-383.984 98.502 6305.4) (-383.984 98.502 6305.4) (-383.984 98.502 6305.4) (-383.984 98.502 6305.4) (-383.984 98.502 6305.4)
700           (-878.219 180.742 6132.17) (-878.219 180.742 6132.17) (-878.219 180.742 6132.17) (-878.219 180.742 6132.17) (-878.219 180.742 6132.17) (-878.219 180.742 6132.17) (-384.034 98.5123 6305.84) (-384.034 98.5123 6305.84) (-384.034 98.5123 6305.84) (-384.034 98.5123 6305.84) (-384.034 98.5123 6305.84)
750           (-878.238 180.746 6131.9) (-878.238 180.746 6131.9) (-878.238 180.746 6131.9) (-878.238 180.746 6131.9) (-878.238 180.746 6131.9) (-878.238 180.746 6131.9) (-384.065 98.5206 6306.07) (-384.065 98.5206 6306.07) (-384.065 98.5206 6306.07) (-384.065 98.5206 6306.07) (-384.065 98.5206 6306.07)
800           (-878.24 180.746 6131.85) (-878.24 180.746 6131.85) (-878.24 180.746 6131.85) (-878.24 180.746 6131.85) (-878.24 180.746 6131.85) (-878.24 180.746 6131.85) (-384.068 98.5201 6306.11) (-384.068 98.5201 6306.11) (-384.068 98.5201 6306.11) (-384.068 98.5201 6306.11) (-384.068 98.5201 6306.11)
850           (-878.244 180.748 6131.8) (-878.244 180.748 6131.8) (-878.244 180.748 6131.8) (-878.244 180.748 6131.8) (-878.244 180.748 6131.8) (-878.244 180.748 6131.8) (-384.076 98.5226 6306.16) (-384.076 98.5226 6306.16) (-384.076 98.5226 6306.16) (-384.076 98.5226 6306.16) (-384.076 98.5226 6306.16)
900           (-878.244 180.748 6131.8) (-878.244 180.748 6131.8) (-878.244 180.748 6131.8) (-878.244 180.748 6131.8) (-878.244 180.748 6131.8) (-878.244 180.748 6131.8) (-384.076 98.5226 6306.16) (-384.076 98.5226 6306.16) (-384.076 98.5226 6306.16) (-384.076 98.5226 6306.16) (-384.076 98.5226 6306.16)
950           (-878.244 180.748 6131.8) (-878.244 180.748 6131.8) (-878.244 180.748 6131.8) (-878.244 180.748 6131.8) (-878.244 180.748 6131.8) (-878.244 180.748 6131.8) (-384.076 98.5226 6306.16) (-384.076 98.5226 6306.16) (-384.076 98.5226 6306.16) (-384.076 98.5226 6306.16) (-384.076 98.5226 6306.16)
1000          (-878.244 180.748 6131.8) (-878.244 180.748 6131.8) (-878.244 180.748 6131.8) (-878.244 180.748 6131.8) (-878.244 180.748 6131.8) (-878.244 180.748 6131.8) (-384.076 98.5226 6306.16) (-384.076 98.5226 6306.16) (-384.076 98.5226 6306.16) (-384.076 98.5226 6306.16) (-384.076 98.5226 6306.16)
1050          (-878.244 180.748 6131.8) (-878.244 180.748 6131.8) (-878.244 180.748 6131.8) (-878.244 180.748 6131.8) (-878.244 180.748 6131.8) (-878.244 180.748 6131.8) (-384.076 98.5226 6306.16) (-384.076 98.5226 6306.16) (-384.076 98.5226 6306.16) (-384.076 98.5226 6306.16) (-384.076 98.5226 6306.16)
1100          (-878.244 180.748 6131.8) (-878.244 180.748 6131.8) (-878.244 180.748 6131.8) (-878.244 180.748 6131.8) (-878.244 180.748 6131.8) (-878.244 180.748 6131.8) (-384.076 98.5226 6306.16) (-384.076 98.5226 6306.16) (-384.076 98.5226 6306.16) (-384.076 98.5226 6306.16) (-384.076 98.5226 6306.16)
1150          (-878.244 180.748 6131.8) (-878.244 180.748 6131.8) (-878.244 180.748 6131.8) (-878.244 180.748 6131.8) (-878.244 180.748 6131.8) (-878.244 180.748 6131.8) (-384.076 98.5226 6306.16) (-384.076 98.5226 6306.16) (-384.076 98.5226 6306.16) (-384.076 98.5226 6306.16) (-384.076 98.5226 6306.16)
1200          (-878.244 180.748 6131.8) (-878.244 180.748 6131.8) (-878.244 180.748 6131.8) (-878.244 180.748 6131.8) (-878.244 180.748 6131.8) (-878.244 180.748 6131.8) (-384.076 98.5226 6306.16) (-384.076 98.5226 6306.16) (-384.076 98.5226 6306.16) (-384.076 98.5226 6306.16) (-384.076 98.5226 6306.16)
1250          (-878.244 180.748 6131.8) (-878.244 180.748 6131.8) (-878.244 180.748 6131.8) (-878.244 180.748 6131.8) (-878.244 180.748 6131.8) (-878.244 180.748 6131.8) (-384.076 98.5226 6306.16) (-384.076 98.5226 6306.16) (-384.076 98.5226 6306.16) (-384.076 98.5226 6306.16) (-384.076 98.5226 6306.16)
1300          (-878.244 180.748 6131.8) (-878.244 180.748 6131.8) (-878.244 180.748 6131.8) (-878.244 180.748 6131.8) (-878.244 180.748 6131.8) (-878.244 180.748 6131.8) (-384.076 98.5226 6306.16) (-384.076 98.5226 6306.16) (-384.076 98.5226 6306.16) (-384.076 98.5226 6306.16) (-384.076 98.5226 6306.16)
1350          (-878.244 180.748 6131.8) (-878.244 180.748 6131.8) (-878.244 180.748 6131.8) (-878.244 180.748 6131.8) (-878.244 180.748 6131.8) (-878.244 180.748 6131.8) (-384.076 98.5226 6306.16) (-384.076 98.5226 6306.16) (-384.076 98.5226 6306.16) (-384.076 98.5226 6306.16) (-384.076 98.5226 6306.16)
1400          (-878.244 180.748 6131.8) (-878.244 180.748 6131.8) (-878.244 180.748 6131.8) (-878.244 180.748 6131.8) (-878.244 180.748 6131.8) (-878.244 180.748 6131.8) (-384.076 98.5226 6306.16) (-384.076 98.5226 6306.16) (-384.076 98.5226 6306.16) (-384.076 98.5226 6306.16) (-384.076 98.5226 6306.16)
1450          (-878.244 180.748 6131.8) (-878.244 180.748 6131.8) (-878.244 180.748 6131.8) (-878.244 180.748 6131.8) (-878.244 180.748 6131.8) (-878.244 180.748 6131.8) (-384.076 98.5226 6306.16) (-384.076 98.5226 6306.16) (-384.076 98.5226 6306.16) (-384.076 98.5226 6306.16) (-384.076 98.5226 6306.16)
1500          (-878.244 180.748 6131.8) (-878.244 180.748 6131.8) (-878.244 180.748 6131.8) (-878.244 180.748 6131.8) (-878.244 180.748 6131.8) (-878.244 180.748 6131.8) (-384.076 98.5226 6306.16) (-384.076 98.5226 6306.16) (-384.076 98.5226 6306.16) (-384.076 98.5226 6306.16) (-384.076 98.5226 6306.16)
1550          (-878.244 180.748 6131.8) (-878.244 180.748 6131.8) (-878.244 180.748 6131.8) (-878.244 180.748 6131.8) (-878.244 180.748 6131.8) (-878.244 180.748 6131.8) (-384.076 98.5226 6306.16) (-384.076 98.5226 6306.16) (-384.076 98.5226 6306.16) (-384.076 98.5226 6306.16) (-384.076 98.5226 6306.16)
1600          (-878.244 180.748 6131.8) (-878.244 180.748 6131.8) (-878.244 180.748 6131.8) (-878.244 180.748 6131.8) (-878.244 180.748 6131.8) (-878.244 180.748 6131.8) (-384.076 98.5226 6306.16) (-384.076 98.5226 6306.16) (-384.076 98.5226 6306.16) (-384.076 98.5226 6306.16) (-384.076 98.5226 6306.16)
1650          (-878.244 180.748 6131.8) (-878.244 180.748 6131.8) (-878.244 180.748 6131.8) (-878.244 180.748 6131.8) (-878.244 180.748 6131.8) (-878.244 180.748 6131.8) (-384.076 98.5226 6306.16) (-384.076 98.5226 6306.16) (-384.076 98.5226 6306.16) (-384.076 98.5226 6306.16) (-384.076 98.5226 6306.16)
1700          (-878.244 180.748 6131.8) (-878.244 180.748 6131.8) (-878.244 180.748 6131.8) (-878.244 180.748 6131.8) (-878.244 180.748 6131.8) (-878.244 180.748 6131.8) (-384.076 98.5226 6306.16) (-384.076 98.5226 6306.16) (-384.076 98.5226 6306.16) (-384.076 98.5226 6306.16) (-384.076 98.5226 6306.16)
1750          (-878.244 180.748 6131.8) (-878.244 180.748 6131.8) (-878.244 180.748 6131.8) (-878.244 180.748 6131.8) (-878.244 180.748 6131.8) (-878.244 180.748 6131.8) (-384.076 98.5226 6306.16) (-384.076 98.5226 6306.16) (-384.076 98.5226 6306.16) (-384.076 98.5226 6306.16) (-384.076 98.5226 6306.16)
1800          (-878.244 180.748 6131.8) (-878.244 180.748 6131.8) (-878.244 180.748 6131.8) (-878.244 180.748 6131.8) (-878.244 180.748 6131.8) (-878.244 180.748 6131.8) (-384.076 98.5226 6306.16) (-384.076 98.5226 6306.16) (-384.076 98.5226 6306.16) (-384.076 98.5226 6306.16) (-384.076 98.5226 6306.16)
1850          (-878.244 180.748 6131.8) (-878.244 180.748 6131.8) (-878.244 180.748 6131.8) (-878.244 180.748 6131.8) (-878.244 180.748 6131.8) (-878.244 180.748 6131.8) (-384.076 98.5226 6306.16) (-384.076 98.5226 6306.16) (-384.076 98.5226 6306.16) (-384.076 98.5226 6306.16) (-384.076 98.5226 6306.16)
1900          (-878.244 180.748 6131.8) (-878.244 180.748 6131.8) (-878.244 180.748 6131.8) (-878.244 180.748 6131.8) (-878.244 180.748 6131.8) (-878.244 180.748 6131.8) (-384.076 98.5226 6306.16) (-384.076 98.5226 6306.16) (-384.076 98.5226 6306.16) (-384.076 98.5226 6306.16) (-384.076 98.5226 6306.16)
1950          (-878.244 180.748 6131.8) (-878.244 180.748 6131.8) (-878.244 180.748 6131.8) (-878.244 180.748 6131.8) (-878.244 180.748 6131.8) (-878.244 180.748 6131.8) (-384.076 98.5226 6306.16) (-384.076 98.5226 6306.16) (-384.076 98.5226 6306.16) (-384.076 98.5226 6306.16) (-384.076 98.5226 6306.16)
2000          (-878.244 180.748 6131.8) (-878.244 180.748 6131.8) (-878.244 180.748 6131.8) (-878.244 180.748 6131.8) (-878.244 180.748 6131.8) (-878.244 180.748 6131.8) (-384.076 98.5226 6306.16) (-384.076 98.5226 6306.16) (-384.076 98.5226 6306.16) (-384.076 98.5226 6306.16) (-384.076 98.5226 6306.16)
2050          (-878.244 180.748 6131.8) (-878.244 180.748 6131.8) (-878.244 180.748 6131.8) (-878.244 180.748 6131.8) (-878.244 180.748 6131.8) (-878.244 180.748 6131.8) (-384.076 98.5226 6306.16) (-384.076 98.5226 6306.16) (-384.076 98.5226 6306.16) (-384.076 98.5226 6306.16) (-384.076 98.5226 6306.16)
2100          (-878.244 180.748 6131.8) (-878.244 180.748 6131.8) (-878.244 180.748 6131.8) (-878.244 180.748 6131.8) (-878.244 180.748 6131.8) (-878.244 180.748 6131.8) (-384.076 98.5226 6306.16) (-384.076 98.5226 6306.16) (-384.076 98.5226 6306.16) (-384.076 98.5226 6306.16) (-384.076 98.5226 6306.16)
2150          (-878.244 180.748 6131.8) (-878.244 180.748 6131.8) (-878.244 180.748 6131.8) (-878.244 180.748 6131.8) (-878.244 180.748 6131.8) (-878.244 180.748 6131.8) (-384.076 98.5226 6306.16) (-384.076 98.5226 6306.16) (-384.076 98.5226 6306.16) (-384.076 98.5226 6306.16) (-384.076 98.5226 6306.16)
2200          (-878.244 180.748 6131.8) (-878.244 180.748 6131.8) (-878.244 180.748 6131.8) (-878.244 180.748 6131.8) (-878.244 180.748 6131.8) (-878.244 180.748 6131.8) (-384.076 98.5226 6306.16) (-384.076 98.5226 6306.16) (-384.076 98.5226 6306.16) (-384.076 98.5226 6306.16) (-384.076 98.5226 6306.16)
2250          (-878.244 180.748 6131.8) (-878.244 180.748 6131.8) (-878.244 180.748 6131.8) (-878.244 180.748 6131.8) (-878.244 180.748 6131.8) (-878.244 180.748 6131.8) (-384.076 98.5226 6306.16) (-384.076 98.5226 6306.16) (-384.076 98.5226 6306.16) (-384.076 98.5226 6306.16) (-384.076 98.5226 6306.16)
2300          (-878.244 180.748 6131.8) (-878.244 180.748 6131.8) (-878.244 180.748 6131.8) (-878.244 180.748 6131.8) (-878.244 180.748 6131.8) (-878.244 180.748 6131.8) (-384.076 98.5226 6306.16) (-384.076 98.5226 6306.16) (-384.076 98.5226 6306.16) (-384.076 98.5226 6306.16) (-384.076 98.5226 6306.16)
2350          (-878.244 180.748 6131.8) (-878.244 180.748 6131.8) (-878.244 180.748 6131.8) (-878.244 180.748 6131.8) (-878.244 180.748 6131.8) (-878.244 180.748 6131.8) (-384.076 98.5226 6306.16) (-384.076 98.5226 6306.16) (-384.076 98.5226 6306.16) (-384.076 98.5226 6306.16) (-384.076 98.5226 6306.16)
2400          (-878.244 180.748 6131.8) (-878.244 180.748 6131.8) (-878.244 180.748 6131.8) (-878.244 180.748 6131.8) (-878.244 180.748 6131.8) (-878.244 180.748 6131.8) (-384.076 98.5226 6306.16) (-384.076 98.5226 6306.16) (-384.076 98.5226 6306.16) (-384.076 98.5226 6306.16) (-384.076 98.5226 6306.16)
2450          (-878.244 180.748 6131.8) (-878.244 180.748 6131.8) (-878.244 180.748 6131.8) (-878.244 180.748 6131.8) (-878.244 180.748 6131.8) (-878.244 180.748 6131.8) (-384.076 98.5226 6306.16) (-384.076 98.5226 6306.16) (-384.076 98.5226 6306.16) (-384.076 98.5226 6306.16) (-384.076 98.5226 6306.16)
2500          (-878.244 180.748 6131.8) (-878.244 180.748 6131.8) (-878.244 180.748 6131.8) (-878.244 180.748 6131.8) (-878.244 180.748 6131.8) (-878.244 180.748 6131.8) (-384.076 98.5226 6306.16) (-384.076 98.5226 6306.16) (-384.076 98.5226 6306.16) (-384.076 98.5226 6306.16) (-384.076 98.5226 6306.16)
2550          (-878.244 180.748 6131.8) (-878.244 180.748 6131.8) (-878.244 180.748 6131.8) (-878.244 180.748 6131.8) (-878.244 180.748 6131.8) (-878.244 180.748 6131.8) (-384.076 98.5226 6306.16) (-384.076 98.5226 6306.16) (-384.076 98.5226 6306.16) (-384.076 98.5226 6306.16) (-384.076 98.5226 6306.16)
2600          (-878.244 180.748 6131.8) (-878.244 180.748 6131.8) (-878.244 180.748 6131.8) (-878.244 180.748 6131.8) (-878.244 180.748 6131.8) (-878.244 180.748 6131.8) (-384.076 98.5226 6306.16) (-384.076 98.5226 6306.16) (-384.076 98.5226 6306.16) (-384.076 98.5226 6306.16) (-384.076 98.5226 6306.16)
2650          (-878.244 180.748 6131.8) (-878.244 180.748 6131.8) (-878.244 180.748 6131.8) (-878.244 180.748 6131.8) (-878.244 180.748 6131.8) (-878.244 180.748 6131.8) (-384.076 98.5226 6306.16) (-384.076 98.5226 6306.16) (-384.076 98.5226 6306.16) (-384.076 98.5226 6306.16) (-384.076 98.5226 6306.16)
2700          (-878.244 180.748 6131.8) (-878.244 180.748 6131.8) (-878.244 180.748 6131.8) (-878.244 180.748 6131.8) (-878.244 180.748 6131.8) (-878.244 180.748 6131.8) (-384.076 98.5226 6306.16) (-384.076 98.5226 6306.16) (-384.076 98.5226 6306.16) (-384.076 98.5226 6306.16) (-384.076 98.5226 6306.16)
2750          (-878.244 180.748 6131.8) (-878.244 180.748 6131.8) (-878.244 180.748 6131.8) (-878.244 180.748 6131.8) (-878.244 180.748 6131.8) (-878.244 180.748 6131.8) (-384.076 98.5226 6306.16) (-384.076 98.5226 6306.16) (-384.076 98.5226 6306.16) (-384.076 98.5226 6306.16) (-384.076 98.5226 6306.16)
2800          (-878.244 180.748 6131.8) (-878.244 180.748 6131.8) (-878.244 180.748 6131.8) (-878.244 180.748 6131.8) (-878.244 180.748 6131.8) (-878.244 180.748 6131.8) (-384.076 98.5226 6306.16) (-384.076 98.5226 6306.16) (-384.076 98.5226 6306.16) (-384.076 98.5226 6306.16) (-384.076 98.5226 6306.16)
2850          (-878.244 180.748 6131.8) (-878.244 180.748 6131.8) (-878.244 180.748 6131.8) (-878.244 180.748 6131.8) (-878.244 180.748 6131.8) (-878.244 180.748 6131.8) (-384.076 98.5226 6306.16) (-384.076 98.5226 6306.16) (-384.076 98.5226 6306.16) (-384.076 98.5226 6306.16) (-384.076 98.5226 6306.16)
2900          (-878.244 180.748 6131.8) (-878.244 180.748 6131.8) (-878.244 180.748 6131.8) (-878.244 180.748 6131.8) (-878.244 180.748 6131.8) (-878.244 180.748 6131.8) (-384.076 98.5226 6306.16) (-384.076 98.5226 6306.16) (-384.076 98.5226 6306.16) (-384.076 98.5226 6306.16) (-384.076 98.5226 6306.16)
2950          (-878.244 180.748 6131.8) (-878.244 180.748 6131.8) (-878.244 180.748 6131.8) (-878.244 180.748 6131.8) (-878.244 180.748 6131.8) (-878.244 180.748 6131.8) (-384.076 98.5226 6306.16) (-384.076 98.5226 6306.16) (-384.076 98.5226 6306.16) (-384.076 98.5226 6306.16) (-384.076 98.5226 6306.16)
3000          (-878.244 180.748 6131.8) (-878.244 180.748 6131.8) (-878.244 180.748 6131.8) (-878.244 180.748 6131.8) (-878.244 180.748 6131.8) (-878.244 180.748 6131.8) (-384.076 98.5226 6306.16) (-384.076 98.5226 6306.16) (-384.076 98.5226 6306.16) (-384.076 98.5226 6306.16) (-384.076 98.5226 6306.16)
3050          (-878.244 180.748 6131.8) (-878.244 180.748 6131.8) (-878.244 180.748 6131.8) (-878.244 180.748 6131.8) (-878.244 180.748 6131.8) (-878.244 180.748 6131.8) (-384.076 98.5226 6306.16) (-384.076 98.5226 6306.16) (-384.076 98.5226 6306.16) (-384.076 98.5226 6306.16) (-384.076 98.5226 6306.16)
3100          (-878.244 180.748 6131.8) (-878.244 180.748 6131.8) (-878.244 180.748 6131.8) (-878.244 180.748 6131.8) (-878.244 180.748 6131.8) (-878.244 180.748 6131.8) (-384.076 98.5226 6306.16) (-384.076 98.5226 6306.16) (-384.076 98.5226 6306.16) (-384.076 98.5226 6306.16) (-384.076 98.5226 6306.16)
3150          (-878.244 180.748 6131.8) (-878.244 180.748 6131.8) (-878.244 180.748 6131.8) (-878.244 180.748 6131.8) (-878.244 180.748 6131.8) (-878.244 180.748 6131.8) (-384.076 98.5226 6306.16) (-384.076 98.5226 6306.16) (-384.076 98.5226 6306.16) (-384.076 98.5226 6306.16) (-384.076 98.5226 6306.16)
3200          (-878.244 180.748 6131.8) (-878.244 180.748 6131.8) (-878.244 180.748 6131.8) (-878.244 180.748 6131.8) (-878.244 180.748 6131.8) (-878.244 180.748 6131.8) (-384.076 98.5226 6306.16) (-384.076 98.5226 6306.16) (-384.076 98.5226 6306.16) (-384.076 98.5226 6306.16) (-384.076 98.5226 6306.16)
3250          (-878.244 180.748 6131.8) (-878.244 180.748 6131.8) (-878.244 180.748 6131.8) (-878.244 180.748 6131.8) (-878.244 180.748 6131.8) (-878.244 180.748 6131.8) (-384.076 98.5226 6306.16) (-384.076 98.5226 6306.16) (-384.076 98.5226 6306.16) (-384.076 98.5226 6306.16) (-384.076 98.5226 6306.16)
3300          (-878.244 180.748 6131.8) (-878.244 180.748 6131.8) (-878.244 180.748 6131.8) (-878.244 180.748 6131.8) (-878.244 180.748 6131.8) (-878.244 180.748 6131.8) (-384.076 98.5226 6306.16) (-384.076 98.5226 6306.16) (-384.076 98.5226 6306.16) (-384.076 98.5226 6306.16) (-384.076 98.5226 6306.16)
3350          (-878.244 180.748 6131.8) (-878.244 180.748 6131.8) (-878.244 180.748 6131.8) (-878.244 180.748 6131.8) (-878.244 180.748 6131.8) (-878.244 180.748 6131.8) (-384.076 98.5226 6306.16) (-384.076 98.5226 6306.16) (-384.076 98.5226 6306.16) (-384.076 98.5226 6306.16) (-384.076 98.5226 6306.16)
3400          (-878.244 180.748 6131.8) (-878.244 180.748 6131.8) (-878.244 180.748 6131.8) (-878.244 180.748 6131.8) (-878.244 180.748 6131.8) (-878.244 180.748 6131.8) (-384.076 98.5226 6306.16) (-384.076 98.5226 6306.16) (-384.076 98.5226 6306.16) (-384.076 98.5226 6306.16) (-384.076 98.5226 6306.16)
3450          (-878.244 180.748 6131.8) (-878.244 180.748 6131.8) (-878.244 180.748 6131.8) (-878.244 180.748 6131.8) (-878.244 180.748 6131.8) (-878.244 180.748 6131.8) (-384.076 98.5226 6306.16) (-384.076 98.5226 6306.16) (-384.076 98.5226 6306.16) (-384.076 98.5226 6306.16) (-384.076 98.5226 6306.16)
3500          (-878.244 180.748 6131.8) (-878.244 180.748 6131.8) (-878.244 180.748 6131.8) (-878.244 180.748 6131.8) (-878.244 180.748 6131.8) (-878.244 180.748 6131.8) (-384.076 98.5226 6306.16) (-384.076 98.5226 6306.16) (-384.076 98.5226 6306.16) (-384.076 98.5226 6306.16) (-384.076 98.5226 6306.16)
3550          (-878.244 180.748 6131.8) (-878.244 180.748 6131.8) (-878.244 180.748 6131.8) (-878.244 180.748 6131.8) (-878.244 180.748 6131.8) (-878.244 180.748 6131.8) (-384.076 98.5226 6306.16) (-384.076 98.5226 6306.16) (-384.076 98.5226 6306.16) (-384.076 98.5226 6306.16) (-384.076 98.5226 6306.16)
3600          (-878.244 180.748 6131.8) (-878.244 180.748 6131.8) (-878.244 180.748 6131.8) (-878.244 180.748 6131.8) (-878.244 180.748 6131.8) (-878.244 180.748 6131.8) (-384.076 98.5226 6306.16) (-384.076 98.5226 6306.16) (-384.076 98.5226 6306.16) (-384.076 98.5226 6306.16) (-384.076 98.5226 6306.16)
3650          (-878.244 180.748 6131.8) (-878.244 180.748 6131.8) (-878.244 180.748 6131.8) (-878.244 180.748 6131.8) (-878.244 180.748 6131.8) (-878.244 180.748 6131.8) (-384.076 98.5226 6306.16) (-384.076 98.5226 6306.16) (-384.076 98.5226 6306.16) (-384.076 98.5226 6306.16) (-384.076 98.5226 6306.16)
3700          (-878.244 180.748 6131.8) (-878.244 180.748 6131.8) (-878.244 180.748 6131.8) (-878.244 180.748 6131.8) (-878.244 180.748 6131.8) (-878.244 180.748 6131.8) (-384.076 98.5226 6306.16) (-384.076 98.5226 6306.16) (-384.076 98.5226 6306.16) (-384.076 98.5226 6306.16) (-384.076 98.5226 6306.16)
3750          (-878.244 180.748 6131.8) (-878.244 180.748 6131.8) (-878.244 180.748 6131.8) (-878.244 180.748 6131.8) (-878.244 180.748 6131.8) (-878.244 180.748 6131.8) (-384.076 98.5226 6306.16) (-384.076 98.5226 6306.16) (-384.076 98.5226 6306.16) (-384.076 98.5226 6306.16) (-384.076 98.5226 6306.16)
3800          (-878.244 180.748 6131.8) (-878.244 180.748 6131.8) (-878.244 180.748 6131.8) (-878.244 180.748 6131.8) (-878.244 180.748 6131.8) (-878.244 180.748 6131.8) (-384.076 98.5226 6306.16) (-384.076 98.5226 6306.16) (-384.076 98.5226 6306.16) (-384.076 98.5226 6306.16) (-384.076 98.5226 6306.16)
3850          (-878.244 180.748 6131.8) (-878.244 180.748 6131.8) (-878.244 180.748 6131.8) (-878.244 180.748 6131.8) (-878.244 180.748 6131.8) (-878.244 180.748 6131.8) (-384.076 98.5226 6306.16) (-384.076 98.5226 6306.16) (-384.076 98.5226 6306.16) (-384.076 98.5226 6306.16) (-384.076 98.5226 6306.16)
3900          (-878.244 180.748 6131.8) (-878.244 180.748 6131.8) (-878.244 180.748 6131.8) (-878.244 180.748 6131.8) (-878.244 180.748 6131.8) (-878.244 180.748 6131.8) (-384.076 98.5226 6306.16) (-384.076 98.5226 6306.16) (-384.076 98.5226 6306.16) (-384.076 98.5226 6306.16) (-384.076 98.5226 6306.16)
3950          (-878.244 180.748 6131.8) (-878.244 180.748 6131.8) (-878.244 180.748 6131.8) (-878.244 180.748 6131.8) (-878.244 180.748 6131.8) (-878.244 180.748 6131.8) (-384.076 98.5226 6306.16) (-384.076 98.5226 6306.16) (-384.076 98.5226 6306.16) (-384.076 98.5226 6306.16) (-384.076 98.5226 6306.16)
4000          (-878.244 180.748 6131.8) (-878.244 180.748 6131.8) (-878.244 180.748 6131.8) (-878.244 180.748 6131.8) (-878.244 180.748 6131.8) (-878.244 180.748 6131.8) (-384.076 98.5226 6306.16) (-384.076 98.5226 6306.16) (-384.076 98.5226 6306.16) (-384.076 98.5226 6306.16) (-384.076 98.5226 6306.16)
4050          (-878.244 180.748 6131.8) (-878.244 180.748 6131.8) (-878.244 180.748 6131.8) (-878.244 180.748 6131.8) (-878.244 180.748 6131.8) (-878.244 180.748 6131.8) (-384.076 98.5226 6306.16) (-384.076 98.5226 6306.16) (-384.076 98.5226 6306.16) (-384.076 98.5226 6306.16) (-384.076 98.5226 6306.16)
4100          (-878.244 180.748 6131.8) (-878.244 180.748 6131.8) (-878.244 180.748 6131.8) (-878.244 180.748 6131.8) (-878.244 180.748 6131.8) (-878.244 180.748 6131.8) (-384.076 98.5226 6306.16) (-384.076 98.5226 6306.16) (-384.076 98.5226 6306.16) (-384.076 98.5226 6306.16) (-384.076 98.5226 6306.16)
4150          (-878.244 180.748 6131.8) (-878.244 180.748 6131.8) (-878.244 180.748 6131.8) (-878.244 180.748 6131.8) (-878.244 180.748 6131.8) (-878.244 180.748 6131.8) (-384.076 98.5226 6306.16) (-384.076 98.5226 6306.16) (-384.076 98.5226 6306.16) (-384.076 98.5226 6306.16) (-384.076 98.5226 6306.16)
4200          (-878.244 180.748 6131.8) (-878.244 180.748 6131.8) (-878.244 180.748 6131.8) (-878.244 180.748 6131.8) (-878.244 180.748 6131.8) (-878.244 180.748 6131.8) (-384.076 98.5226 6306.16) (-384.076 98.5226 6306.16) (-384.076 98.5226 6306.16) (-384.076 98.5226 6306.16) (-384.076 98.5226 6306.16)
4250          (-878.244 180.748 6131.8) (-878.244 180.748 6131.8) (-878.244 180.748 6131.8) (-878.244 180.748 6131.8) (-878.244 180.748 6131.8) (-878.244 180.748 6131.8) (-384.076 98.5226 6306.16) (-384.076 98.5226 6306.16) (-384.076 98.5226 6306.16) (-384.076 98.5226 6306.16) (-384.076 98.5226 6306.16)
4300          (-878.244 180.748 6131.8) (-878.244 180.748 6131.8) (-878.244 180.748 6131.8) (-878.244 180.748 6131.8) (-878.244 180.748 6131.8) (-878.244 180.748 6131.8) (-384.076 98.5226 6306.16) (-384.076 98.5226 6306.16) (-384.076 98.5226 6306.16) (-384.076 98.5226 6306.16) (-384.076 98.5226 6306.16)
4350          (-878.244 180.748 6131.8) (-878.244 180.748 6131.8) (-878.244 180.748 6131.8) (-878.244 180.748 6131.8) (-878.244 180.748 6131.8) (-878.244 180.748 6131.8) (-384.076 98.5226 6306.16) (-384.076 98.5226 6306.16) (-384.076 98.5226 6306.16) (-384.076 98.5226 6306.16) (-384.076 98.5226 6306.16)
4400          (-878.244 180.748 6131.8) (-878.244 180.748 6131.8) (-878.244 180.748 6131.8) (-878.244 180.748 6131.8) (-878.244 180.748 6131.8) (-878.244 180.748 6131.8) (-384.076 98.5226 6306.16) (-384.076 98.5226 6306.16) (-384.076 98.5226 6306.16) (-384.076 98.5226 6306.16) (-384.076 98.5226 6306.16)
4450          (-878.244 180.748 6131.8) (-878.244 180.748 6131.8) (-878.244 180.748 6131.8) (-878.244 180.748 6131.8) (-878.244 180.748 6131.8) (-878.244 180.748 6131.8) (-384.076 98.5226 6306.16) (-384.076 98.5226 6306.16) (-384.076 98.5226 6306.16) (-384.076 98.5226 6306.16) (-384.076 98.5226 6306.16)
4500          (-878.244 180.748 6131.8) (-878.244 180.748 6131.8) (-878.244 180.748 6131.8) (-878.244 180.748 6131.8) (-878.244 180.748 6131.8) (-878.244 180.748 6131.8) (-384.076 98.5226 6306.16) (-384.076 98.5226 6306.16) (-384.076 98.5226 6306.16) (-384.076 98.5226 6306.16) (-384.076 98.5226 6306.16)
4550          (-878.244 180.748 6131.8) (-878.244 180.748 6131.8) (-878.244 180.748 6131.8) (-878.244 180.748 6131.8) (-878.244 180.748 6131.8) (-878.244 180.748 6131.8) (-384.076 98.5226 6306.16) (-384.076 98.5226 6306.16) (-384.076 98.5226 6306.16) (-384.076 98.5226 6306.16) (-384.076 98.5226 6306.16)
4600          (-878.244 180.748 6131.8) (-878.244 180.748 6131.8) (-878.244 180.748 6131.8) (-878.244 180.748 6131.8) (-878.244 180.748 6131.8) (-878.244 180.748 6131.8) (-384.076 98.5226 6306.16) (-384.076 98.5226 6306.16) (-384.076 98.5226 6306.16) (-384.076 98.5226 6306.16) (-384.076 98.5226 6306.16)
4650          (-878.244 180.748 6131.8) (-878.244 180.748 6131.8) (-878.244 180.748 6131.8) (-878.244 180.748 6131.8) (-878.244 180.748 6131.8) (-878.244 180.748 6131.8) (-384.076 98.5226 6306.16) (-384.076 98.5226 6306.16) (-384.076 98.5226 6306.16) (-384.076 98.5226 6306.16) (-384.076 98.5226 6306.16)
4700          (-878.244 180.748 6131.8) (-878.244 180.748 6131.8) (-878.244 180.748 6131.8) (-878.244 180.748 6131.8) (-878.244 180.748 6131.8) (-878.244 180.748 6131.8) (-384.076 98.5226 6306.16) (-384.076 98.5226 6306.16) (-384.076 98.5226 6306.16) (-384.076 98.5226 6306.16) (-384.076 98.5226 6306.16)
4750          (-878.244 180.748 6131.8) (-878.244 180.748 6131.8) (-878.244 180.748 6131.8) (-878.244 180.748 6131.8) (-878.244 180.748 6131.8) (-878.244 180.748 6131.8) (-384.076 98.5226 6306.16) (-384.076 98.5226 6306.16) (-384.076 98.5226 6306.16) (-384.076 98.5226 6306.16) (-384.076 98.5226 6306.16)
4800          (-878.244 180.748 6131.8) (-878.244 180.748 6131.8) (-878.244 180.748 6131.8) (-878.244 180.748 6131.8) (-878.244 180.748 6131.8) (-878.244 180.748 6131.8) (-384.076 98.5226 6306.16) (-384.076 98.5226 6306.16) (-384.076 98.5226 6306.16) (-384.076 98.5226 6306.16) (-384.076 98.5226 6306.16)