# Probe 0 (0.0015 0.0015 0)
# Probe 1 (0.0015 0.0015 0.002)
# Probe 2 (0.0015 0.0015 0.004)
# Probe 3 (0.0015 0.0015 0.006)
# Probe 4 (0.0015 0.0015 0.008)
# Probe 5 (0.0015 0.0015 0.01)
# Probe 6 (0.0015 0.0015 0.012)
# Probe 7 (0.0015 0.0015 0.014)
# Probe 8 (0.0015 0.0015 0.016)
# Probe 9 (0.0015 0.0015 0.018)
# Probe 10 (0.0015 0.0015 0.02)
# Time        0             1             2             3             4             5             6             7             8             9             10           
50            (-4.60112e-05 -9.12526e-05 -0.101187) (-4.60112e-05 -9.12526e-05 -0.101187) (-4.60112e-05 -9.12526e-05 -0.101187) (-4.60112e-05 -9.12526e-05 -0.101187) (-4.60112e-05 -9.12526e-05 -0.101187) (-4.60112e-05 -9.12526e-05 -0.101187) (0.000188661 -0.000389193 -0.0839277) (0.000188661 -0.000389193 -0.0839277) (0.000188661 -0.000389193 -0.0839277) (0.000188661 -0.000389193 -0.0839277) (0.000188661 -0.000389193 -0.0839277)
100           (9.87422e-05 -0.000159316 -0.156432) (9.87422e-05 -0.000159316 -0.156432) (9.87422e-05 -0.000159316 -0.156432) (9.87422e-05 -0.000159316 -0.156432) (9.87422e-05 -0.000159316 -0.156432) (9.87422e-05 -0.000159316 -0.156432) (0.000164488 -9.05174e-05 -0.122773) (0.000164488 -9.05174e-05 -0.122773) (0.000164488 -9.05174e-05 -0.122773) (0.000164488 -9.05174e-05 -0.122773) (0.000164488 -9.05174e-05 -0.122773)
150           (7.42642e-05 -9.20726e-05 -0.132837) (7.42642e-05 -9.20726e-05 -0.132837) (7.42642e-05 -9.20726e-05 -0.132837) (7.42642e-05 -9.20726e-05 -0.132837) (7.42642e-05 -9.20726e-05 -0.132837) (7.42642e-05 -9.20726e-05 -0.132837) (-2.2084e-07 -3.19513e-05 -0.13005) (-2.2084e-07 -3.19513e-05 -0.13005) (-2.2084e-07 -3.19513e-05 -0.13005) (-2.2084e-07 -3.19513e-05 -0.13005) (-2.2084e-07 -3.19513e-05 -0.13005)
200           (0.000168526 -0.000143812 -0.134828) (0.000168526 -0.000143812 -0.134828) (0.000168526 -0.000143812 -0.134828) (0.000168526 -0.000143812 -0.134828) (0.000168526 -0.000143812 -0.134828) (0.000168526 -0.000143812 -0.134828) (-2.32807e-05 2.88346e-05 -0.129335) (-2.32807e-05 2.88346e-05 -0.129335) (-2.32807e-05 2.88346e-05 -0.129335) (-2.32807e-05 2.88346e-05 -0.129335) (-2.32807e-05 2.88346e-05 -0.129335)
250           (0.00042941 -0.00025265 -0.132995) (0.00042941 -0.00025265 -0.132995) (0.00042941 -0.00025265 -0.132995) (0.00042941 -0.00025265 -0.132995) (0.00042941 -0.00025265 -0.132995) (0.00042941 -0.00025265 -0.132995) (0.000416452 -0.00042621 -0.130154) (0.000416452 -0.00042621 -0.130154) (0.000416452 -0.00042621 -0.130154) (0.000416452 -0.00042621 -0.130154) (0.000416452 -0.00042621 -0.130154)
300           (0.000251166 -0.000213397 -0.133687) (0.000251166 -0.000213397 -0.133687) (0.000251166 -0.000213397 -0.133687) (0.000251166 -0.000213397 -0.133687) (0.000251166 -0.000213397 -0.133687) (0.000251166 -0.000213397 -0.133687) (-0.000120643 0.00012165 -0.130851) (-0.000120643 0.00012165 -0.130851) (-0.000120643 0.00012165 -0.130851) (-0.000120643 0.00012165 -0.130851) (-0.000120643 0.00012165 -0.130851)
350           (-0.000152547 0.000157879 -0.133157) (-0.000152547 0.000157879 -0.133157) (-0.000152547 0.000157879 -0.133157) (-0.000152547 0.000157879 -0.133157) (-0.000152547 0.000157879 -0.133157) (-0.000152547 0.000157879 -0.133157) (-0.000177086 0.000188615 -0.129718) (-0.000177086 0.000188615 -0.129718) (-0.000177086 0.000188615 -0.129718) (-0.000177086 0.000188615 -0.129718) (-0.000177086 0.000188615 -0.129718)
400           (-1.19607e-05 8.48365e-06 -0.133673) (-1.19607e-05 8.48365e-06 -0.133673) (-1.19607e-05 8.48365e-06 -0.133673) (-1.19607e-05 8.48365e-06 -0.133673) (-1.19607e-05 8.48365e-06 -0.133673) (-1.19607e-05 8.48365e-06 -0.133673) (-1.03148e-05 2.87229e-05 -0.129703) (-1.03148e-05 2.87229e-05 -0.129703) (-1.03148e-05 2.87229e-05 -0.129703) (-1.03148e-05 2.87229e-05 -0.129703) (-1.03148e-05 2.87229e-05 -0.129703)
450           (4.55516e-05 -5.83925e-05 -0.137654) (4.55516e-05 -5.83925e-05 -0.137654) (4.55516e-05 -5.83925e-05 -0.137654) (4.55516e-05 -5.83925e-05 -0.137654) (4.55516e-05 -5.83925e-05 -0.137654) (4.55516e-05 -5.83925e-05 -0.137654) (-0.000115622 4.12599e-05 -0.129843) (-0.000115622 4.12599e-05 -0.129843) (-0.000115622 4.12599e-05 -0.129843) (-0.000115622 4.12599e-05 -0.129843) (-0.000115622 4.12599e-05 -0.129843)
500           (0.000511237 -0.000328044 -0.139752) (0.000511237 -0.000328044 -0.139752) (0.000511237 -0.000328044 -0.139752) (0.000511237 -0.000328044 -0.139752) (0.000511237 -0.000328044 -0.139752) (0.000511237 -0.000328044 -0.139752) (0.000341469 -0.000388277 -0.141478) (0.000341469 -0.000388277 -0.141478) (0.000341469 -0.000388277 -0.141478) (0.000341469 -0.000388277 -0.141478) (0.000341469 -0.000388277 -0.141478)
550           (-7.37315e-06 -1.75041e-05 -0.141688) (-7.37315e-06 -1.75041e-05 -0.141688) (-7.37315e-06 -1.75041e-05 -0.141688) (-7.37315e-06 -1.75041e-05 -0.141688) (-7.37315e-06 -1.75041e-05 -0.141688) (-7.37315e-06 -1.75041e-05 -0.141688) (-2.07285e-05 -2.3147e-06 -0.137739) (-2.07285e-05 -2.3147e-06 -0.137739) (-2.07285e-05 -2.3147e-06 -0.137739) (-2.07285e-05 -2.3147e-06 -0.137739) (-2.07285e-05 -2.3147e-06 -0.137739)
600           (-2.22896e-05 -1.50005e-05 -0.142351) (-2.22896e-05 -1.50005e-05 -0.142351) (-2.22896e-05 -1.50005e-05 -0.142351) (-2.22896e-05 -1.50005e-05 -0.142351) (-2.22896e-05 -1.50005e-05 -0.142351) (-2.22896e-05 -1.50005e-05 -0.142351) (-4.45684e-05 -1.22861e-05 -0.140361) (-4.45684e-05 -1.22861e-05 -0.140361) (-4.45684e-05 -1.22861e-05 -0.140361) (-4.45684e-05 -1.22861e-05 -0.140361) (-4.45684e-05 -1.22861e-05 -0.140361)
650           (-6.48986e-05 7.15024e-05 -0.142836) (-6.48986e-05 7.15024e-05 -0.142836) (-6.48986e-05 7.15024e-05 -0.142836) (-6.48986e-05 7.15024e-05 -0.142836) (-6.48986e-05 7.15024e-05 -0.142836) (-6.48986e-05 7.15024e-05 -0.142836) (-0.000299288 0.000272141 -0.140856) (-0.000299288 0.000272141 -0.140856) (-0.000299288 0.000272141 -0.140856) (-0.000299288 0.000272141 -0.140856) (-0.000299288 0.000272141 -0.140856)
700           (-0.000203623 6.98993e-06 -0.179078) (-0.000203623 6.98993e-06 -0.179078) (-0.000203623 6.98993e-06 -0.179078) (-0.000203623 6.98993e-06 -0.179078) (-0.000203623 6.98993e-06 -0.179078) (-0.000203623 6.98993e-06 -0.179078) (-0.000169465 0.000118141 -0.12739) (-0.000169465 0.000118141 -0.12739) (-0.000169465 0.000118141 -0.12739) (-0.000169465 0.000118141 -0.12739) (-0.000169465 0.000118141 -0.12739)
750           (-0.000219511 5.41724e-08 -0.182225) (-0.000219511 5.41724e-08 -0.182225) (-0.000219511 5.41724e-08 -0.182225) (-0.000219511 5.41724e-08 -0.182225) (-0.000219511 5.41724e-08 -0.182225) (-0.000219511 5.41724e-08 -0.182225) (-0.000179954 0.000116157 -0.127392) (-0.000179954 0.000116157 -0.127392) (-0.000179954 0.000116157 -0.127392) (-0.000179954 0.000116157 -0.127392) (-0.000179954 0.000116157 -0.127392)
800           (-0.000198892 9.69118e-06 -0.180227) (-0.000198892 9.69118e-06 -0.180227) (-0.000198892 9.69118e-06 -0.180227) (-0.000198892 9.69118e-06 -0.180227) (-0.000198892 9.69118e-06 -0.180227) (-0.000198892 9.69118e-06 -0.180227) (-0.000176747 0.000127396 -0.129275) (-0.000176747 0.000127396 -0.129275) (-0.000176747 0.000127396 -0.129275) (-0.000176747 0.000127396 -0.129275) (-0.000176747 0.000127396 -0.129275)
850           (-0.000204895 4.67272e-05 -0.183429) (-0.000204895 4.67272e-05 -0.183429) (-0.000204895 4.67272e-05 -0.183429) (-0.000204895 4.67272e-05 -0.183429) (-0.000204895 4.67272e-05 -0.183429) (-0.000204895 4.67272e-05 -0.183429) (-0.000168277 0.000122109 -0.125616) (-0.000168277 0.000122109 -0.125616) (-0.000168277 0.000122109 -0.125616) (-0.000168277 0.000122109 -0.125616) (-0.000168277 0.000122109 -0.125616)
900           (8.78515e-05 -0.00017136 -0.178593) (8.78515e-05 -0.00017136 -0.178593) (8.78515e-05 -0.00017136 -0.178593) (8.78515e-05 -0.00017136 -0.178593) (8.78515e-05 -0.00017136 -0.178593) (8.78515e-05 -0.00017136 -0.178593) (0.00017149 -0.000108188 -0.125181) (0.00017149 -0.000108188 -0.125181) (0.00017149 -0.000108188 -0.125181) (0.00017149 -0.000108188 -0.125181) (0.00017149 -0.000108188 -0.125181)
950           (-0.000164448 8.71506e-05 -0.163167) (-0.000164448 8.71506e-05 -0.163167) (-0.000164448 8.71506e-05 -0.163167) (-0.000164448 8.71506e-05 -0.163167) (-0.000164448 8.71506e-05 -0.163167) (-0.000164448 8.71506e-05 -0.163167) (-0.000118414 9.691e-05 -0.118921) (-0.000118414 9.691e-05 -0.118921) (-0.000118414 9.691e-05 -0.118921) (-0.000118414 9.691e-05 -0.118921) (-0.000118414 9.691e-05 -0.118921)
1000          (-0.000178794 6.24848e-05 -0.16709) (-0.000178794 6.24848e-05 -0.16709) (-0.000178794 6.24848e-05 -0.16709) (-0.000178794 6.24848e-05 -0.16709) (-0.000178794 6.24848e-05 -0.16709) (-0.000178794 6.24848e-05 -0.16709) (-0.000164381 0.000101602 -0.118689) (-0.000164381 0.000101602 -0.118689) (-0.000164381 0.000101602 -0.118689) (-0.000164381 0.000101602 -0.118689) (-0.000164381 0.000101602 -0.118689)
1050          (-0.000163963 5.85085e-05 -0.163896) (-0.000163963 5.85085e-05 -0.163896) (-0.000163963 5.85085e-05 -0.163896) (-0.000163963 5.85085e-05 -0.163896) (-0.000163963 5.85085e-05 -0.163896) (-0.000163963 5.85085e-05 -0.163896) (-0.000136065 9.27076e-05 -0.120654) (-0.000136065 9.27076e-05 -0.120654) (-0.000136065 9.27076e-05 -0.120654) (-0.000136065 9.27076e-05 -0.120654) (-0.000136065 9.27076e-05 -0.120654)
1100          (-0.000174097 2.31704e-05 -0.163163) (-0.000174097 2.31704e-05 -0.163163) (-0.000174097 2.31704e-05 -0.163163) (-0.000174097 2.31704e-05 -0.163163) (-0.000174097 2.31704e-05 -0.163163) (-0.000174097 2.31704e-05 -0.163163) (-0.000164755 9.99087e-05 -0.121292) (-0.000164755 9.99087e-05 -0.121292) (-0.000164755 9.99087e-05 -0.121292) (-0.000164755 9.99087e-05 -0.121292) (-0.000164755 9.99087e-05 -0.121292)
1150          (-1.12562e-06 -4.20765e-05 -0.159306) (-1.12562e-06 -4.20765e-05 -0.159306) (-1.12562e-06 -4.20765e-05 -0.159306) (-1.12562e-06 -4.20765e-05 -0.159306) (-1.12562e-06 -4.20765e-05 -0.159306) (-1.12562e-06 -4.20765e-05 -0.159306) (4.97532e-05 -4.31042e-05 -0.119856) (4.97532e-05 -4.31042e-05 -0.119856) (4.97532e-05 -4.31042e-05 -0.119856) (4.97532e-05 -4.31042e-05 -0.119856) (4.97532e-05 -4.31042e-05 -0.119856)
1200          (-0.000222179 5.34417e-05 -0.16396) (-0.000222179 5.34417e-05 -0.16396) (-0.000222179 5.34417e-05 -0.16396) (-0.000222179 5.34417e-05 -0.16396) (-0.000222179 5.34417e-05 -0.16396) (-0.000222179 5.34417e-05 -0.16396) (-0.000142849 0.000132124 -0.118477) (-0.000142849 0.000132124 -0.118477) (-0.000142849 0.000132124 -0.118477) (-0.000142849 0.000132124 -0.118477) (-0.000142849 0.000132124 -0.118477)
1250          (7.97307e-05 -0.000141376 -0.164699) (7.97307e-05 -0.000141376 -0.164699) (7.97307e-05 -0.000141376 -0.164699) (7.97307e-05 -0.000141376 -0.164699) (7.97307e-05 -0.000141376 -0.164699) (7.97307e-05 -0.000141376 -0.164699) (9.71621e-05 -9.23614e-05 -0.119853) (9.71621e-05 -9.23614e-05 -0.119853) (9.71621e-05 -9.23614e-05 -0.119853) (9.71621e-05 -9.23614e-05 -0.119853) (9.71621e-05 -9.23614e-05 -0.119853)
1300          (-3.3211e-06 8.87021e-06 -0.13409) (-3.3211e-06 8.87021e-06 -0.13409) (-3.3211e-06 8.87021e-06 -0.13409) (-3.3211e-06 8.87021e-06 -0.13409) (-3.3211e-06 8.87021e-06 -0.13409) (-3.3211e-06 8.87021e-06 -0.13409) (-0.000271437 0.00020957 -0.129976) (-0.000271437 0.00020957 -0.129976) (-0.000271437 0.00020957 -0.129976) (-0.000271437 0.00020957 -0.129976) (-0.000271437 0.00020957 -0.129976)
1350          (-7.10776e-06 6.52369e-06 -0.141278) (-7.10776e-06 6.52369e-06 -0.141278) (-7.10776e-06 6.52369e-06 -0.141278) (-7.10776e-06 6.52369e-06 -0.141278) (-7.10776e-06 6.52369e-06 -0.141278) (-7.10776e-06 6.52369e-06 -0.141278) (1.11782e-06 2.38293e-05 -0.140035) (1.11782e-06 2.38293e-05 -0.140035) (1.11782e-06 2.38293e-05 -0.140035) (1.11782e-06 2.38293e-05 -0.140035) (1.11782e-06 2.38293e-05 -0.140035)
1400          (-2.58167e-05 -5.26357e-06 -0.142518) (-2.58167e-05 -5.26357e-06 -0.142518) (-2.58167e-05 -5.26357e-06 -0.142518) (-2.58167e-05 -5.26357e-06 -0.142518) (-2.58167e-05 -5.26357e-06 -0.142518) (-2.58167e-05 -5.26357e-06 -0.142518) (-7.10845e-05 -1.4592e-05 -0.139721) (-7.10845e-05 -1.4592e-05 -0.139721) (-7.10845e-05 -1.4592e-05 -0.139721) (-7.10845e-05 -1.4592e-05 -0.139721) (-7.10845e-05 -1.4592e-05 -0.139721)
1450          (-2.16152e-05 -8.65494e-06 -0.14408) (-2.16152e-05 -8.65494e-06 -0.14408) (-2.16152e-05 -8.65494e-06 -0.14408) (-2.16152e-05 -8.65494e-06 -0.14408) (-2.16152e-05 -8.65494e-06 -0.14408) (-2.16152e-05 -8.65494e-06 -0.14408) (-4.47944e-05 3.51574e-06 -0.141061) (-4.47944e-05 3.51574e-06 -0.141061) (-4.47944e-05 3.51574e-06 -0.141061) (-4.47944e-05 3.51574e-06 -0.141061) (-4.47944e-05 3.51574e-06 -0.141061)
1500          (0.000622038 -0.000447158 -0.141355) (0.000622038 -0.000447158 -0.141355) (0.000622038 -0.000447158 -0.141355) (0.000622038 -0.000447158 -0.141355) (0.000622038 -0.000447158 -0.141355) (0.000622038 -0.000447158 -0.141355) (0.000141529 -0.000178884 -0.140075) (0.000141529 -0.000178884 -0.140075) (0.000141529 -0.000178884 -0.140075) (0.000141529 -0.000178884 -0.140075) (0.000141529 -0.000178884 -0.140075)
1550          (-2.47874e-05 -1.97691e-05 -0.143793) (-2.47874e-05 -1.97691e-05 -0.143793) (-2.47874e-05 -1.97691e-05 -0.143793) (-2.47874e-05 -1.97691e-05 -0.143793) (-2.47874e-05 -1.97691e-05 -0.143793) (-2.47874e-05 -1.97691e-05 -0.143793) (-2.30558e-05 -1.82403e-05 -0.138899) (-2.30558e-05 -1.82403e-05 -0.138899) (-2.30558e-05 -1.82403e-05 -0.138899) (-2.30558e-05 -1.82403e-05 -0.138899) (-2.30558e-05 -1.82403e-05 -0.138899)
1600          (0.000673221 -0.000441128 -0.14076) (0.000673221 -0.000441128 -0.14076) (0.000673221 -0.000441128 -0.14076) (0.000673221 -0.000441128 -0.14076) (0.000673221 -0.000441128 -0.14076) (0.000673221 -0.000441128 -0.14076) (0.000299676 -0.000314774 -0.139949) (0.000299676 -0.000314774 -0.139949) (0.000299676 -0.000314774 -0.139949) (0.000299676 -0.000314774 -0.139949) (0.000299676 -0.000314774 -0.139949)
1650          (-2.74546e-06 -1.79886e-05 -0.139756) (-2.74546e-06 -1.79886e-05 -0.139756) (-2.74546e-06 -1.79886e-05 -0.139756) (-2.74546e-06 -1.79886e-05 -0.139756) (-2.74546e-06 -1.79886e-05 -0.139756) (-2.74546e-06 -1.79886e-05 -0.139756) (-2.61412e-05 2.76944e-06 -0.139684) (-2.61412e-05 2.76944e-06 -0.139684) (-2.61412e-05 2.76944e-06 -0.139684) (-2.61412e-05 2.76944e-06 -0.139684) (-2.61412e-05 2.76944e-06 -0.139684)
1700          (-5.21358e-06 -1.63994e-05 -0.138827) (-5.21358e-06 -1.63994e-05 -0.138827) (-5.21358e-06 -1.63994e-05 -0.138827) (-5.21358e-06 -1.63994e-05 -0.138827) (-5.21358e-06 -1.63994e-05 -0.138827) (-5.21358e-06 -1.63994e-05 -0.138827) (-5.2883e-05 -8.18211e-07 -0.139581) (-5.2883e-05 -8.18211e-07 -0.139581) (-5.2883e-05 -8.18211e-07 -0.139581) (-5.2883e-05 -8.18211e-07 -0.139581) (-5.2883e-05 -8.18211e-07 -0.139581)
1750          (0.000394348 -0.00028455 -0.142676) (0.000394348 -0.00028455 -0.142676) (0.000394348 -0.00028455 -0.142676) (0.000394348 -0.00028455 -0.142676) (0.000394348 -0.00028455 -0.142676) (0.000394348 -0.00028455 -0.142676) (0.000331921 -0.000340019 -0.141037) (0.000331921 -0.000340019 -0.141037) (0.000331921 -0.000340019 -0.141037) (0.000331921 -0.000340019 -0.141037) (0.000331921 -0.000340019 -0.141037)
1800          (-2.93702e-05 -9.35841e-06 -0.143472) (-2.93702e-05 -9.35841e-06 -0.143472) (-2.93702e-05 -9.35841e-06 -0.143472) (-2.93702e-05 -9.35841e-06 -0.143472) (-2.93702e-05 -9.35841e-06 -0.143472) (-2.93702e-05 -9.35841e-06 -0.143472) (-2.81404e-05 -5.49088e-06 -0.139889) (-2.81404e-05 -5.49088e-06 -0.139889) (-2.81404e-05 -5.49088e-06 -0.139889) (-2.81404e-05 -5.49088e-06 -0.139889) (-2.81404e-05 -5.49088e-06 -0.139889)
1850          (7.78543e-05 1.62643e-05 -0.14911) (7.78543e-05 1.62643e-05 -0.14911) (7.78543e-05 1.62643e-05 -0.14911) (7.78543e-05 1.62643e-05 -0.14911) (7.78543e-05 1.62643e-05 -0.14911) (7.78543e-05 1.62643e-05 -0.14911) (-0.000519623 0.000504945 -0.139281) (-0.000519623 0.000504945 -0.139281) (-0.000519623 0.000504945 -0.139281) (-0.000519623 0.000504945 -0.139281) (-0.000519623 0.000504945 -0.139281)
1900          (-0.00021683 4.88971e-05 -0.181118) (-0.00021683 4.88971e-05 -0.181118) (-0.00021683 4.88971e-05 -0.181118) (-0.00021683 4.88971e-05 -0.181118) (-0.00021683 4.88971e-05 -0.181118) (-0.00021683 4.88971e-05 -0.181118) (-0.000186177 0.000139332 -0.126313) (-0.000186177 0.000139332 -0.126313) (-0.000186177 0.000139332 -0.126313) (-0.000186177 0.000139332 -0.126313) (-0.000186177 0.000139332 -0.126313)
1950          (-7.94488e-05 -8.84468e-06 -0.179932) (-7.94488e-05 -8.84468e-06 -0.179932) (-7.94488e-05 -8.84468e-06 -0.179932) (-7.94488e-05 -8.84468e-06 -0.179932) (-7.94488e-05 -8.84468e-06 -0.179932) (-7.94488e-05 -8.84468e-06 -0.179932) (-0.000186023 0.000137037 -0.125498) (-0.000186023 0.000137037 -0.125498) (-0.000186023 0.000137037 -0.125498) (-0.000186023 0.000137037 -0.125498) (-0.000186023 0.000137037 -0.125498)
2000          (-0.000224457 4.53192e-05 -0.182177) (-0.000224457 4.53192e-05 -0.182177) (-0.000224457 4.53192e-05 -0.182177) (-0.000224457 4.53192e-05 -0.182177) (-0.000224457 4.53192e-05 -0.182177) (-0.000224457 4.53192e-05 -0.182177) (-0.000209272 0.000154263 -0.125764) (-0.000209272 0.000154263 -0.125764) (-0.000209272 0.000154263 -0.125764) (-0.000209272 0.000154263 -0.125764) (-0.000209272 0.000154263 -0.125764)
2050          (-0.000151516 6.48435e-05 -0.165489) (-0.000151516 6.48435e-05 -0.165489) (-0.000151516 6.48435e-05 -0.165489) (-0.000151516 6.48435e-05 -0.165489) (-0.000151516 6.48435e-05 -0.165489) (-0.000151516 6.48435e-05 -0.165489) (-0.000131584 7.63527e-05 -0.118582) (-0.000131584 7.63527e-05 -0.118582) (-0.000131584 7.63527e-05 -0.118582) (-0.000131584 7.63527e-05 -0.118582) (-0.000131584 7.63527e-05 -0.118582)
2100          (-0.000158647 6.2896e-05 -0.164663) (-0.000158647 6.2896e-05 -0.164663) (-0.000158647 6.2896e-05 -0.164663) (-0.000158647 6.2896e-05 -0.164663) (-0.000158647 6.2896e-05 -0.164663) (-0.000158647 6.2896e-05 -0.164663) (-0.000145715 8.53808e-05 -0.121167) (-0.000145715 8.53808e-05 -0.121167) (-0.000145715 8.53808e-05 -0.121167) (-0.000145715 8.53808e-05 -0.121167) (-0.000145715 8.53808e-05 -0.121167)
2150          (-0.000146207 5.945e-05 -0.162986) (-0.000146207 5.945e-05 -0.162986) (-0.000146207 5.945e-05 -0.162986) (-0.000146207 5.945e-05 -0.162986) (-0.000146207 5.945e-05 -0.162986) (-0.000146207 5.945e-05 -0.162986) (-0.000106671 9.71313e-05 -0.120809) (-0.000106671 9.71313e-05 -0.120809) (-0.000106671 9.71313e-05 -0.120809) (-0.000106671 9.71313e-05 -0.120809) (-0.000106671 9.71313e-05 -0.120809)
2200          (8.96382e-05 -0.000149007 -0.160204) (8.96382e-05 -0.000149007 -0.160204) (8.96382e-05 -0.000149007 -0.160204) (8.96382e-05 -0.000149007 -0.160204) (8.96382e-05 -0.000149007 -0.160204) (8.96382e-05 -0.000149007 -0.160204) (0.000113207 -8.58128e-05 -0.120219) (0.000113207 -8.58128e-05 -0.120219) (0.000113207 -8.58128e-05 -0.120219) (0.000113207 -8.58128e-05 -0.120219) (0.000113207 -8.58128e-05 -0.120219)
2250          (-2.23342e-05 -2.54088e-05 -0.158754) (-2.23342e-05 -2.54088e-05 -0.158754) (-2.23342e-05 -2.54088e-05 -0.158754) (-2.23342e-05 -2.54088e-05 -0.158754) (-2.23342e-05 -2.54088e-05 -0.158754) (-2.23342e-05 -2.54088e-05 -0.158754) (-9.12575e-05 6.0077e-05 -0.119693) (-9.12575e-05 6.0077e-05 -0.119693) (-9.12575e-05 6.0077e-05 -0.119693) (-9.12575e-05 6.0077e-05 -0.119693) (-9.12575e-05 6.0077e-05 -0.119693)
2300          (-5.44895e-05 3.07803e-06 -0.162754) (-5.44895e-05 3.07803e-06 -0.162754) (-5.44895e-05 3.07803e-06 -0.162754) (-5.44895e-05 3.07803e-06 -0.162754) (-5.44895e-05 3.07803e-06 -0.162754) (-5.44895e-05 3.07803e-06 -0.162754) (-2.03867e-05 1.83157e-06 -0.118579) (-2.03867e-05 1.83157e-06 -0.118579) (-2.03867e-05 1.83157e-06 -0.118579) (-2.03867e-05 1.83157e-06 -0.118579) (-2.03867e-05 1.83157e-06 -0.118579)
2350          (3.76074e-05 -4.75258e-05 -0.134251) (3.76074e-05 -4.75258e-05 -0.134251) (3.76074e-05 -4.75258e-05 -0.134251) (3.76074e-05 -4.75258e-05 -0.134251) (3.76074e-05 -4.75258e-05 -0.134251) (3.76074e-05 -4.75258e-05 -0.134251) (-0.00013899 9.17708e-05 -0.130906) (-0.00013899 9.17708e-05 -0.130906) (-0.00013899 9.17708e-05 -0.130906) (-0.00013899 9.17708e-05 -0.130906) (-0.00013899 9.17708e-05 -0.130906)
2400          (-5.51175e-05 4.21759e-05 -0.136902) (-5.51175e-05 4.21759e-05 -0.136902) (-5.51175e-05 4.21759e-05 -0.136902) (-5.51175e-05 4.21759e-05 -0.136902) (-5.51175e-05 4.21759e-05 -0.136902) (-5.51175e-05 4.21759e-05 -0.136902) (-0.000174752 0.000123796 -0.130432) (-0.000174752 0.000123796 -0.130432) (-0.000174752 0.000123796 -0.130432) (-0.000174752 0.000123796 -0.130432) (-0.000174752 0.000123796 -0.130432)
2450          (3.67626e-05 -4.30656e-05 -0.134899) (3.67626e-05 -4.30656e-05 -0.134899) (3.67626e-05 -4.30656e-05 -0.134899) (3.67626e-05 -4.30656e-05 -0.134899) (3.67626e-05 -4.30656e-05 -0.134899) (3.67626e-05 -4.30656e-05 -0.134899) (4.3685e-05 -4.35196e-05 -0.130741) (4.3685e-05 -4.35196e-05 -0.130741) (4.3685e-05 -4.35196e-05 -0.130741) (4.3685e-05 -4.35196e-05 -0.130741) (4.3685e-05 -4.35196e-05 -0.130741)
2500          (4.94867e-05 -3.64313e-05 -0.135708) (4.94867e-05 -3.64313e-05 -0.135708) (4.94867e-05 -3.64313e-05 -0.135708) (4.94867e-05 -3.64313e-05 -0.135708) (4.94867e-05 -3.64313e-05 -0.135708) (4.94867e-05 -3.64313e-05 -0.135708) (-0.000198637 0.000191795 -0.133024) (-0.000198637 0.000191795 -0.133024) (-0.000198637 0.000191795 -0.133024) (-0.000198637 0.000191795 -0.133024) (-0.000198637 0.000191795 -0.133024)
2550          (-5.88745e-05 0.000116533 -0.140031) (-5.88745e-05 0.000116533 -0.140031) (-5.88745e-05 0.000116533 -0.140031) (-5.88745e-05 0.000116533 -0.140031) (-5.88745e-05 0.000116533 -0.140031) (-5.88745e-05 0.000116533 -0.140031) (-0.000411148 0.000403738 -0.140567) (-0.000411148 0.000403738 -0.140567) (-0.000411148 0.000403738 -0.140567) (-0.000411148 0.000403738 -0.140567) (-0.000411148 0.000403738 -0.140567)
2600          (0.000307653 -0.000257858 -0.141374) (0.000307653 -0.000257858 -0.141374) (0.000307653 -0.000257858 -0.141374) (0.000307653 -0.000257858 -0.141374) (0.000307653 -0.000257858 -0.141374) (0.000307653 -0.000257858 -0.141374) (0.000191926 -0.000201119 -0.139206) (0.000191926 -0.000201119 -0.139206) (0.000191926 -0.000201119 -0.139206) (0.000191926 -0.000201119 -0.139206) (0.000191926 -0.000201119 -0.139206)
2650          (0.000254658 -0.000215777 -0.144757) (0.000254658 -0.000215777 -0.144757) (0.000254658 -0.000215777 -0.144757) (0.000254658 -0.000215777 -0.144757) (0.000254658 -0.000215777 -0.144757) (0.000254658 -0.000215777 -0.144757) (0.000157703 -0.000135506 -0.13939) (0.000157703 -0.000135506 -0.13939) (0.000157703 -0.000135506 -0.13939) (0.000157703 -0.000135506 -0.13939) (0.000157703 -0.000135506 -0.13939)
2700          (6.83117e-06 -1.36988e-05 -0.14322) (6.83117e-06 -1.36988e-05 -0.14322) (6.83117e-06 -1.36988e-05 -0.14322) (6.83117e-06 -1.36988e-05 -0.14322) (6.83117e-06 -1.36988e-05 -0.14322) (6.83117e-06 -1.36988e-05 -0.14322) (2.72525e-05 2.31128e-05 -0.13829) (2.72525e-05 2.31128e-05 -0.13829) (2.72525e-05 2.31128e-05 -0.13829) (2.72525e-05 2.31128e-05 -0.13829) (2.72525e-05 2.31128e-05 -0.13829)
2750          (-0.000297274 0.000488525 -0.140127) (-0.000297274 0.000488525 -0.140127) (-0.000297274 0.000488525 -0.140127) (-0.000297274 0.000488525 -0.140127) (-0.000297274 0.000488525 -0.140127) (-0.000297274 0.000488525 -0.140127) (-0.000598346 0.000563348 -0.139307) (-0.000598346 0.000563348 -0.139307) (-0.000598346 0.000563348 -0.139307) (-0.000598346 0.000563348 -0.139307) (-0.000598346 0.000563348 -0.139307)
2800          (0.000462011 -0.000332995 -0.140746) (0.000462011 -0.000332995 -0.140746) (0.000462011 -0.000332995 -0.140746) (0.000462011 -0.000332995 -0.140746) (0.000462011 -0.000332995 -0.140746) (0.000462011 -0.000332995 -0.140746) (0.000335853 -0.000338959 -0.140436) (0.000335853 -0.000338959 -0.140436) (0.000335853 -0.000338959 -0.140436) (0.000335853 -0.000338959 -0.140436) (0.000335853 -0.000338959 -0.140436)
2850          (0.000142895 -0.000143693 -0.1418) (0.000142895 -0.000143693 -0.1418) (0.000142895 -0.000143693 -0.1418) (0.000142895 -0.000143693 -0.1418) (0.000142895 -0.000143693 -0.1418) (0.000142895 -0.000143693 -0.1418) (-0.000161037 0.000119713 -0.140732) (-0.000161037 0.000119713 -0.140732) (-0.000161037 0.000119713 -0.140732) (-0.000161037 0.000119713 -0.140732) (-0.000161037 0.000119713 -0.140732)
2900          (-3.3234e-05 -2.63643e-05 -0.156814) (-3.3234e-05 -2.63643e-05 -0.156814) (-3.3234e-05 -2.63643e-05 -0.156814) (-3.3234e-05 -2.63643e-05 -0.156814) (-3.3234e-05 -2.63643e-05 -0.156814) (-3.3234e-05 -2.63643e-05 -0.156814) (-6.75086e-05 -2.86489e-05 -0.140115) (-6.75086e-05 -2.86489e-05 -0.140115) (-6.75086e-05 -2.86489e-05 -0.140115) (-6.75086e-05 -2.86489e-05 -0.140115) (-6.75086e-05 -2.86489e-05 -0.140115)
2950          (9.02903e-05 -0.000161258 -0.182807) (9.02903e-05 -0.000161258 -0.182807) (9.02903e-05 -0.000161258 -0.182807) (9.02903e-05 -0.000161258 -0.182807) (9.02903e-05 -0.000161258 -0.182807) (9.02903e-05 -0.000161258 -0.182807) (0.000127198 -0.000126597 -0.125956) (0.000127198 -0.000126597 -0.125956) (0.000127198 -0.000126597 -0.125956) (0.000127198 -0.000126597 -0.125956) (0.000127198 -0.000126597 -0.125956)
3000          (-0.000162999 6.1018e-05 -0.165738) (-0.000162999 6.1018e-05 -0.165738) (-0.000162999 6.1018e-05 -0.165738) (-0.000162999 6.1018e-05 -0.165738) (-0.000162999 6.1018e-05 -0.165738) (-0.000162999 6.1018e-05 -0.165738) (-0.000132326 9.29445e-05 -0.120985) (-0.000132326 9.29445e-05 -0.120985) (-0.000132326 9.29445e-05 -0.120985) (-0.000132326 9.29445e-05 -0.120985) (-0.000132326 9.29445e-05 -0.120985)
3050          (-0.000197977 -1.85351e-05 -0.169211) (-0.000197977 -1.85351e-05 -0.169211) (-0.000197977 -1.85351e-05 -0.169211) (-0.000197977 -1.85351e-05 -0.169211) (-0.000197977 -1.85351e-05 -0.169211) (-0.000197977 -1.85351e-05 -0.169211) (-0.000118768 0.000102368 -0.120175) (-0.000118768 0.000102368 -0.120175) (-0.000118768 0.000102368 -0.120175) (-0.000118768 0.000102368 -0.120175) (-0.000118768 0.000102368 -0.120175)
3100          (8.12656e-05 -0.000137352 -0.164169) (8.12656e-05 -0.000137352 -0.164169) (8.12656e-05 -0.000137352 -0.164169) (8.12656e-05 -0.000137352 -0.164169) (8.12656e-05 -0.000137352 -0.164169) (8.12656e-05 -0.000137352 -0.164169) (8.50147e-05 -7.80875e-05 -0.120863) (8.50147e-05 -7.80875e-05 -0.120863) (8.50147e-05 -7.80875e-05 -0.120863) (8.50147e-05 -7.80875e-05 -0.120863) (8.50147e-05 -7.80875e-05 -0.120863)
3150          (-0.000143621 6.0529e-05 -0.163117) (-0.000143621 6.0529e-05 -0.163117) (-0.000143621 6.0529e-05 -0.163117) (-0.000143621 6.0529e-05 -0.163117) (-0.000143621 6.0529e-05 -0.163117) (-0.000143621 6.0529e-05 -0.163117) (-0.000138527 9.60957e-05 -0.120338) (-0.000138527 9.60957e-05 -0.120338) (-0.000138527 9.60957e-05 -0.120338) (-0.000138527 9.60957e-05 -0.120338) (-0.000138527 9.60957e-05 -0.120338)
3200          (-0.00016016 6.532e-05 -0.164748) (-0.00016016 6.532e-05 -0.164748) (-0.00016016 6.532e-05 -0.164748) (-0.00016016 6.532e-05 -0.164748) (-0.00016016 6.532e-05 -0.164748) (-0.00016016 6.532e-05 -0.164748) (-0.000148732 8.53012e-05 -0.119384) (-0.000148732 8.53012e-05 -0.119384) (-0.000148732 8.53012e-05 -0.119384) (-0.000148732 8.53012e-05 -0.119384) (-0.000148732 8.53012e-05 -0.119384)
3250          (-3.74859e-05 -5.89809e-06 -0.159774) (-3.74859e-05 -5.89809e-06 -0.159774) (-3.74859e-05 -5.89809e-06 -0.159774) (-3.74859e-05 -5.89809e-06 -0.159774) (-3.74859e-05 -5.89809e-06 -0.159774) (-3.74859e-05 -5.89809e-06 -0.159774) (-0.000103465 9.41144e-05 -0.119454) (-0.000103465 9.41144e-05 -0.119454) (-0.000103465 9.41144e-05 -0.119454) (-0.000103465 9.41144e-05 -0.119454) (-0.000103465 9.41144e-05 -0.119454)
3300          (3.23952e-05 -6.02192e-05 -0.160566) (3.23952e-05 -6.02192e-05 -0.160566) (3.23952e-05 -6.02192e-05 -0.160566) (3.23952e-05 -6.02192e-05 -0.160566) (3.23952e-05 -6.02192e-05 -0.160566) (3.23952e-05 -6.02192e-05 -0.160566) (8.28269e-06 -6.67166e-06 -0.120677) (8.28269e-06 -6.67166e-06 -0.120677) (8.28269e-06 -6.67166e-06 -0.120677) (8.28269e-06 -6.67166e-06 -0.120677) (8.28269e-06 -6.67166e-06 -0.120677)
3350          (-0.000139818 4.99887e-05 -0.162756) (-0.000139818 4.99887e-05 -0.162756) (-0.000139818 4.99887e-05 -0.162756) (-0.000139818 4.99887e-05 -0.162756) (-0.000139818 4.99887e-05 -0.162756) (-0.000139818 4.99887e-05 -0.162756) (-0.000142538 0.000101273 -0.121739) (-0.000142538 0.000101273 -0.121739) (-0.000142538 0.000101273 -0.121739) (-0.000142538 0.000101273 -0.121739) (-0.000142538 0.000101273 -0.121739)
3400          (0.000101357 -0.000163272 -0.164788) (0.000101357 -0.000163272 -0.164788) (0.000101357 -0.000163272 -0.164788) (0.000101357 -0.000163272 -0.164788) (0.000101357 -0.000163272 -0.164788) (0.000101357 -0.000163272 -0.164788) (0.000137406 -8.70791e-05 -0.120926) (0.000137406 -8.70791e-05 -0.120926) (0.000137406 -8.70791e-05 -0.120926) (0.000137406 -8.70791e-05 -0.120926) (0.000137406 -8.70791e-05 -0.120926)
3450          (-0.00013452 6.94538e-05 -0.165136) (-0.00013452 6.94538e-05 -0.165136) (-0.00013452 6.94538e-05 -0.165136) (-0.00013452 6.94538e-05 -0.165136) (-0.00013452 6.94538e-05 -0.165136) (-0.00013452 6.94538e-05 -0.165136) (-0.000135792 7.9745e-05 -0.119001) (-0.000135792 7.9745e-05 -0.119001) (-0.000135792 7.9745e-05 -0.119001) (-0.000135792 7.9745e-05 -0.119001) (-0.000135792 7.9745e-05 -0.119001)
3500          (-0.000278011 0.000411893 -0.133219) (-0.000278011 0.000411893 -0.133219) (-0.000278011 0.000411893 -0.133219) (-0.000278011 0.000411893 -0.133219) (-0.000278011 0.000411893 -0.133219) (-0.000278011 0.000411893 -0.133219) (-0.00050202 0.000462568 -0.130551) (-0.00050202 0.000462568 -0.130551) (-0.00050202 0.000462568 -0.130551) (-0.00050202 0.000462568 -0.130551) (-0.00050202 0.000462568 -0.130551)