# Probe 0 (0.0015 0.0015 0)
# Probe 1 (0.0015 0.0015 0.01)
# Probe 2 (0.0015 0.0015 0.02)
# Probe 3 (0.0015 0.0015 0.03)
# Probe 4 (0.0015 0.0015 0.04)
# Probe 5 (0.0015 0.0015 0.05)
# Probe 6 (0.0015 0.0015 0.06)
# Probe 7 (0.0015 0.0015 0.07)
# Probe 8 (0.0015 0.0015 0.08)
# Probe 9 (0.0015 0.0015 0.09)
# Probe 10 (0.0015 0.0015 0.1)
# Time        0             1             2             3             4             5             6             7             8             9             10           
50            184487        84454.4       69369.4       68248.7       68199.6       68328.1       68483.9       68484.9       68484.6       68317.4       34158.2      
100           196488        101951        72551.4       68594.2       68244.2       68332.7       68481.6       68484.9       68482.2       67881         29799        
150           201987        116565        77467.5       69414.5       68355.5       68343.2       68478.2       68484.8       68473.7       67195.5       27366.6      
200           205288        127737        83351.9       70805.5       68588.9       68371.9       68474.4       68484.5       68453.7       66333.5       25781.1      
250           207549        136320        89502.4       72747.7       68994.7       68434.6       68470.8       68483.9       68416.6       65365.6       24648.8      
300           209220        143092        95476.1       75144.7       69605.8       68549.3       68468.1       68482.5       68358         64346.8       23790        
350           210521        148583        101061        77868.7       70433.3       68732.7       68467.7       68480         68274.4       63314.2       23111.2      
400           211571        153139        106188        80798.5       71473.1       68999.1       68470.9       68475.8       68164.7       62292.6       22557.9      
450           212441        156994        110858        83829         72705.2       69358.1       68479.7       68469.3       68028.7       61296.7       22095.7      
500           213177        160308        115104        86880.7       74101.9       69814.5       68496.1       68460.1       67867.6       60334.7       21702.3      
550           213810        163196        118967        89897.6       75632.3       70368.8       68522.8       68447.5       67683         59410.9       21362.1      
600           214363        165741        122491        92842.5       77265.5       71017.8       68562         68431.2       67477.4       58526.9       21064.1      
650           214851        168005        125716        95692.3       78973.1       71755.3       68616.4       68410.9       67253         57682.8       20800.3      
700           215286        170036        128676        98434.2       80730.1       72573.5       68688.1       68386.5       67012.4       56877.5       20564.6      
750           215677        171871        131404        101062        82515.5       73463.1       68779.2       68358.1       66757.9       56109.7       20352.4      
800           216030        173540        133926        103574        84311.7       74414.8       68891.5       68325.8       66491.8       55377.6       20159.9      
850           216352        175066        136266        105973        86105         75419.1       69026.3       68290.1       66216.1       54679.1       19984.4      
900           216646        176468        138442        108260        87884.3       76466.9       69184.6       68251.3       65932.8       54012.4       19823.5      
950           216917        177762        140472        110442        89641.5       77549.9       69367         68210.1       65643.5       53375.7       19675.3      
1000          217168        178962        142372        112523        91370.1       78660         69573.6       68167.1       65349.8       52767         19538.1      
1050          217400        180077        144154        114508        93065.4       79790.4       69804.6       68123         65052.9       52184.6       19410.7      
1100          217616        181118        145829        116402        94724.1       80934.9       70059.4       68078.6       64754.2       51626.8       19291.9      
1150          217818        182091        147406        118211        96344.1       82088.3       70337.5       68034.6       64454.7       51092.2       19180.9      
1200          218007        183005        148896        119940        97923.9       83245.6       70638.1       67991.7       64155.3       50579.3       19076.8      
1250          218185        183864        150305        121594        99462.9       84403         70960.3       67950.6       63856.9       50086.8       18979        
1300          218352        184674        151640        123177        100961        85557.1       71303         67912.1       63560.1       49613.4       18886.7      
1350          218509        185440        152907        124693        102418        86704.6       71664.8       67876.8       63265.8       49158.1       18799.6      
1400          218658        186164        154112        126147        103835        87843.4       72044.6       67845.3       62974.4       48719.9       18717.2      
1450          218799        186851        155259        127542        105212        88971.5       72441         67818.1       62686.5       48297.7       18639.1      
1500          218933        187504        156353        128882        106550        90086.4       72852.7       67795.7       62402.6       47890.8       18564.7      
1550          219060        188125        157397        130169        107851        91188.3       73278.6       67778.5       62123         47498.2       18494.1      
1600          219181        188717        158396        131408        109115        92274.5       73717         67766.8       61848.2       47119.2       18426.7      
1650          219297        189282        159351        132600        110343        93344.8       74167         67761         61578.3       46753.2       18362.4      
1700          219407        189822        160267        133749        111536        94398.3       74627.2       67761.4       61313.8       46399.4       18301        
1750          219513        190338        161145        134856        112696        95434.6       75096.5       67768         61054.9       46057.3       18242.2      
1800          219614        190833        161989        135924        113824        96453.1       75573.7       67781.1       60801.7       45726.3       18185.8      
1850          219710        191307        162799        136955        114920        97453.8       76057.7       67800.8       60554.4       45406         18131.7      
1900          219803        191762        163579        137951        115986        98436.3       76547.6       67827.1       60313.3       45095.8       18079.8      
1950          219892        192200        164330        138914        117022        99400.3       77042.3       67860.1       60078.4       44795.3       18029.9      
2000          219978        192621        165053        139845        118031        100346        77541         67899.7       59849.8       44504.1       17981.9      
2050          220060        193026        165751        140746        119012        101275        78042.8       67946         59627.6       44221.8       17935.7      
2100          220139        193416        166424        141618        119966        102185        78547         67998.7       59412         43948         17891.1      
2150          220216        193793        167075        142463        120896        103076        79052.5       68057.9       59202.9       43682.7       17848.2      
2200          220289        194156        167703        143282        121801        103951        79559.3       68123.4       59000.3       43425.1       17806.7      
2250          220360        194506        168311        144076        122682        104808        80066.3       68195.1       58804.4       43175.3       17766.6      
2300          220429        194845        168899        144846        123540        105647        80573         68272.8       58615.1       42932.9       17727.9      
2350          220496        195173        169469        145593        124376        106470        81078.7       68356.3       58432.3       42697.6       17690.5      
2400          220560        195490        170020        146319        125191        107276        81583.1       68445.6       58256.2       42469.3       17654.3      
2450          220622        195797        170555        147024        125986        108065        82085.6       68540.3       58086.6       42247.7       17619.2      
2500          220682        196094        171074        147710        126760        108838        82586         68640.3       57923.6       42032.7       17585.3      
2550          220741        196383        171577        148376        127515        109595        83083.7       68745.4       57767         41823.9       17552.4      
2600          220797        196662        172066        149024        128252        110337        83578.5       68855.4       57616.9       41621.4       17520.6      
2650          220852        196934        172540        149654        128970        111064        84070.1       68970.1       57473         41424.7       17489.7      
2700          220905        197197        173001        150267        129671        111776        84558.2       69089.3       57335.5       41233.9       17459.8      
2750          220957        197453        173449        150864        130355        112473        85042.6       69212.7       57204.1       41048.8       17430.7      
2800          221007        197701        173885        151446        131023        113155        85523.1       69340.2       57078.8       40869.1       17402.5      
2850          221056        197943        174308        152012        131675        113824        85999.5       69471.6       56959.5       40694.8       17375.2      
2900          221103        198177        174721        152564        132312        114479        86471.5       69606.7       56846.2       40525.8       17348.6      
2950          221149        198406        175122        153102        132934        115121        86939.2       69745.3       56738.6       40361.8       17322.9      
3000          221194        198628        175512        153626        133541        115750        87402.4       69887.2       56636.8       40202.8       17297.8      
3050          221238        198844        175892        154136        134133        116365        87861.1       70032.3       56540.5       40048.6       17273.5      
3100          221280        199054        176263        154634        134713        116969        88315.1       70180.2       56449.8       39899.2       17249.9      
3150          221322        199259        176624        155121        135279        117560        88764.1       70331         56364.4       39754.4       17227        
3200          221362        199459        176976        155595        135832        118139        89208.2       70484.3       56284.4       39614.2       17204.8      
3250          221401        199653        177319        156058        136373        118706        89647.3       70640         56209.5       39478.3       17183.2      
3300          221439        199843        177653        156510        136902        119263        90081.3       70797.9       56139.7       39346.9       17162.2      
3350          221477        200028        177980        156951        137420        119808        90510.3       70958         56074.9       39219.6       17141.8      
3400          221513        200208        178298        157382        137926        120342        90934.2       71119.9       56014.9       39096.5       17122        
3450          221548        200384        178609        157803        138420        120866        91353.5       71283.8       55959.6       38977.4       17102.8      
3500          221583        200555        178912        158214        138904        121379        91767.5       71449.3       55908.9       38862.3       17084.1      
3550          221617        200723        179208        158615        139378        121882        92176.4       71616.3       55862.8       38751.1       17066        
3600          221650        200886        179497        159008        139841        122376        92580.3       71784.7       55821         38643.7       17048.4      
3650          221682        201046        179780        159392        140294        122859        92979.5       71954.5       55783.6       38539.9       17031.3      
3700          221713        201201        180056        159767        140739        123333        93372.4       72124.9       55750.4       38440.1       17014.8      
3750          221744        201354        180326        160134        141173        123799        93761.4       72296.8       55721.2       38343.6       16998.7      
3800          221774        201502        180589        160493        141599        124255        94145         72469.5       55695.9       38250.7       16983.1      
3850          221803        201648        180847        160844        142015        124703        94523.8       72643         55674.6       38161.2       16968        
3900          221832        201790        181099        161188        142424        125142        94897.3       72817         55657         38075.2       16953.4      
3950          221860        201929        181346        161524        142824        125572        95265.8       72991.6       55643.1       37992.4       16939.2      
4000          221887        202065        181586        161853        143215        125995        95630.3       73167.1       55632.7       37912.7       16925.4      
4050          221914        202197        181822        162175        143599        126409        95989.6       73342.8       55625.7       37836.2       16912.1      
4100          221940        202327        182053        162490        143975        126816        96343.5       73518.6       55622.1       37762.9       16899.3      
4150          221965        202454        182279        162799        144344        127215        96693.5       73694.9       55621.8       37692.6       16886.8      
4200          221990        202579        182500        163101        144705        127607        97038.8       73871.5       55624.6       37625.1       16874.7      
4250          222015        202700        182716        163397        145059        127991        97379.6       74048.1       55630.5       37560.6       16863        
4300          222039        202819        182928        163687        145406        128369        97715.6       74224.7       55639.4       37499         16851.8      
4350          222062        202936        183134        163970        145746        128739        98047.5       74401.5       55651.1       37440.1       16840.9      
4400          222085        203049        183337        164248        146079        129102        98375         74578.1       55665.7       37383.9       16830.3      
4450          222107        203161        183535        164520        146405        129459        98698.1       74754.7       55683         37330.4       16820.2      
4500          222129        203270        183729        164787        146726        129809        99016.9       74931.1       55702.9       37279.6       16810.4      
4550          222151        203377        183920        165048        147040        130154        99331.3       75107.2       55725.3       37231.2       16800.9      
4600          222172        203481        184106        165304        147349        130492        99641.6       75283         55750.2       37185.4       16791.8      
4650          222192        203584        184289        165556        147651        130824        99947.6       75458.4       55777.5       37142         16783.1      
4700          222213        203685        184468        165802        147948        131150        100250        75633.5       55807.2       37101         16774.7      
4750          222232        203783        184644        166044        148240        131471        100548        75808.1       55839         37062.4       16766.6      
4800          222252        203880        184816        166281        148526        131786        100841        75982.3       55873         37026         16758.8      
4850          222271        203975        184985        166514        148807        132095        101131        76156         55909.1       36991.9       16751.3      
4900          222290        204067        185151        166742        149083        132399        101418        76329.1       55947.2       36960         16744.2      
4950          222308        204159        185314        166966        149354        132698        101700        76501.6       55987.3       36930.2       16737.3      
5000          222326        204248        185473        167186        149620        132992        101979        76673.5       56029.2       36902.6       16730.7      
5050          222343        204336        185630        167402        149881        133281        102254        76844.8       56073         36876.9       16724.5      
5100          222361        204422        185783        167614        150138        133565        102525        77015.4       56118.5       36853.3       16718.5      
5150          222378        204506        185934        167822        150390        133844        102793        77185.4       56165.7       36831.6       16712.8      
5200          222394        204589        186082        168026        150638        134119        103057        77354.6       56214.5       36811.9       16707.3      
5250          222411        204670        186227        168226        150881        134389        103318        77523.1       56264.9       36794         16702.2      
5300          222427        204750        186369        168423        151120        134654        103575        77690.8       56316.8       36777.9       16697.3      
5350          222442        204828        186509        168617        151355        134916        103829        77857.8       56370.1       36763.6       16692.6      
5400          222458        204905        186646        168807        151586        135173        104080        78024         56424.9       36751         16688.2      
5450          222473        204980        186781        168993        151813        135425        104328        78189.4       56481         36740.2       16684        
5500          222488        205053        186912        169175        152034        135674        104572        78353.9       56538.4       36731         16680.1      
5550          222502        205126        187042        169354        152253        135917        104814        78518         56597.1       36723.4       16676.5      
5600          222516        205196        187168        169529        152466        136158        105052        78680.8       56656.9       36717.4       16673        
5650          222530        205265        187291        169700        152675        136393        105287        78842.8       56717.9       36712.9       16669.8      
5700          222543        205332        187411        169867        152880        136624        105519        79003.9       56779.9       36709.9       16666.8      
5750          222557        205398        187530        170032        153082        136852        105748        79164.3       56843.1       36708.4       16664        
5800          222570        205463        187647        170194        153281        137076        105974        79323.7       56907.2       36708.3       16661.4      
5850          222583        205527        187761        170354        153477        137297        106198        79482.2       56972.4       36709.6       16659.1      
5900          222595        205590        187874        170511        153670        137514        106418        79639.9       57038.4       36712.3       16656.9      
5950          222608        205652        187985        170666        153860        137728        106636        79796.8       57105.5       36716.3       16654.9      
6000          222620        205713        188095        170818        154047        137939        106851        79952.5       57173.2       36721.6       16653.2      
6050          222632        205773        188203        170968        154231        138147        107063        80107.4       57241.8       36728.1       16651.6      
6100          222644        205832        188309        171116        154413        138351        107272        80261.3       57311.2       36735.8       16650.2      
6150          222655        205890        188413        171261        154591        138553        107480        80414.4       57381.3       36744.8       16649        
6200          222667        205948        188516        171404        154767        138751        107684        80566.5       57452.2       36754.9       16647.9      
6250          222678        206004        188617        171545        154940        138947        107886        80717.7       57523.7       36766.1       16647.1      
6300          222689        206059        188716        171683        155110        139140        108086        80868         57595.9       36778.4       16646.4      
6350          222700        206114        188814        171820        155278        139329        108283        81017.4       57668.7       36791.8       16645.9      
6400          222711        206168        188911        171954        155443        139516        108477        81165.5       57741.8       36806.2       16645.5      
6450          222721        206220        189005        172086        155606        139701        108670        81313.2       57815.8       36821.7       16645.3      
6500          222732        206271        189097        172214        155763        139880        108861        81460         57890.4       36838.1       16645.2      
6550          222742        206322        189188        172341        155920        140059        109049        81605.9       57965.3       36855.5       16645.3      
6600          222752        206373        189279        172468        156077        140237        109235        81750.7       58040.8       36873.8       16645.6      
6650          222762        206421        189366        172590        156227        140408        109419        81895.1       58116.9       36893         16646        
6700          222772        206470        189455        172714        156380        140582        109600        82037.5       58192.8       36913         16646.5      
6750          222781        206518        189541        172834        156529        140751        109779        82179.2       58269.4       36934         16647.2      
6800          222791        206565        189625        172952        156675        140918        109957        82320.3       58346.4       36955.7       16648        
6850          222800        206612        189709        173069        156819        141082        110132        82460.5       58423.7       36978.2       16648.9      
6900          222809        206657        189791        173184        156961        141244        110306        82599.8       58501.3       37001.5       16650        
6950          222818        206703        189872        173298        157102        141404        110477        82738         58579.3       37025.6       16651.1      
7000          222827        206747        189952        173409        157240        141562        110647        82875.9       58657.5       37050.4       16652.4      
7050          222836        206791        190031        173520        157377        141718        110813        83011.5       58735.7       37075.8       16653.9      
7100          222844        206833        190107        173626        157508        141870        110980        83147.7       58814.6       37102         16655.3      
7150          222853        206876        190184        173733        157641        142021        111143        83282.3       58893.4       37128.9       16657        
7200          222861        206918        190260        173841        157774        142173        111305        83415.6       58972.3       37156.2       16658.5      
7250          222869        206959        190333        173943        157901        142319        111466        83548.8       59051.6       37184.4       16660.6      
7300          222877        206999        190405        174044        158027        142464        111625        83681.2       59131.2       37213.1       16662.5      
7350          222885        207038        190476        174144        158151        142607        111782        83813.1       59211         37242.4       16664.6      
7400          222893        207077        190547        174242        158274        142748        111938        83944         59291         37272.3       16666.7      
7450          222901        207115        190616        174340        158395        142889        112092        84073.6       59370.8       37302.7       16669        
7500          222908        207153        190684        174436        158514        143027        112245        84202.9       59451         37333.7       16671.3      
7550          222916        207190        190751        174530        158632        143163        112396        84331.7       59531.4       37365.2       16673.7      
7600          222923        207227        190818        174624        158750        143299        112545        84459.3       59611.8       37397.1       16676.2      
7650          222930        207263        190883        174715        158863        143430        112693        84586.2       59692.4       37429.6       16678.8      
7700          222938        207299        190947        174806        158977        143562        112839        84711.9       59772.6       37462.5       16681.5      
7750          222945        207335        191011        174896        159089        143691        112984        84836.9       59853.1       37495.8       16684.2      
7800          222952        207369        191075        174985        159200        143820        113127        84961         59933.5       37529.5       16687.1      
7850          222958        207404        191137        175073        159310        143946        113268        85084.4       60014         37563.7       16690        
7900          222965        207438        191198        175159        159418        144072        113408        85206.8       60094.4       37598.2       16692.9      
7950          222972        207472        191259        175245        159525        144196        113547        85328.5       60174.8       37633.1       16696        
8000          222979        207505        191319        175330        159631        144318        113684        85449.3       60255.1       37668.3       16699.1      
8050          222985        207538        191379        175413        159736        144439        113820        85569.3       60335.4       37703.9       16702.3      
8100          222992        207570        191437        175496        159839        144558        113955        85688.5       60415.6       37739.8       16705.5      
8150          222998        207602        191495        175578        159941        144676        114088        85806.8       60495.7       37776         16708.8      
8200          223005        207634        191553        175658        160042        144793        114219        85924.3       60575.7       37812.5       16712.1      
8250          223011        207665        191609        175738        160141        144908        114349        86040.6       60655.4       37849.2       16715.5      
8300          223017        207696        191665        175817        160240        145022        114478        86156.5       60735.3       37886.3       16719        
8350          223023        207727        191720        175894        160337        145135        114606        86271.5       60814.9       37923.6       16722.5      
8400          223029        207757        191774        175971        160433        145246        114733        86385.7       60894.3       37961.2       16726.1      
8450          223035        207787        191828        176047        160528        145356        114857        86498.8       60973.4       37998.8       16729.7      
8500          223041        207816        191881        176121        160621        145465        114982        86611.7       61052.8       38036.9       16733.4      
8550          223047        207845        191934        176195        160714        145573        115104        86723.3       61131.6       38075         16737.1      
8600          223052        207873        191985        176268        160805        145679        115226        86834.4       61210.5       38113.3       16740.8      
8650          223058        207902        192036        176340        160895        145784        115346        86944.3       61288.8       38151.7       16744.6      
8700          223064        207930        192087        176411        160985        145888        115465        87053.9       61367.3       38190.4       16748.4      
8750          223069        207957        192136        176482        161073        145991        115583        87162.7       61445.5       38229.3       16752.3      