# Probe 0 (0.0015 0.0015 0)
# Probe 1 (0.0015 0.0015 0.01)
# Probe 2 (0.0015 0.0015 0.02)
# Probe 3 (0.0015 0.0015 0.03)
# Probe 4 (0.0015 0.0015 0.04)
# Probe 5 (0.0015 0.0015 0.05)
# Probe 6 (0.0015 0.0015 0.06)
# Probe 7 (0.0015 0.0015 0.07)
# Probe 8 (0.0015 0.0015 0.08)
# Probe 9 (0.0015 0.0015 0.09)
# Probe 10 (0.0015 0.0015 0.1)
# Time        0             1             2             3             4             5             6             7             8             9             10           
50            0.00105141    0.00105141    0.00105141    0.00105141    0.00105141    0.00105141    0.000488068   0.000488068   0.000488068   0.000488068   0.000488068  
100           0.00105141    0.00105141    0.00105141    0.00105141    0.00105141    0.00105141    0.000488068   0.000488068   0.000488068   0.000488068   0.000488068  
150           0.00105141    0.00105141    0.00105141    0.00105141    0.00105141    0.00105141    0.000488068   0.000488068   0.000488068   0.000488068   0.000488068  
200           0.00105141    0.00105141    0.00105141    0.00105141    0.00105141    0.00105141    0.000488068   0.000488068   0.000488068   0.000488068   0.000488068  
250           0.00105141    0.00105141    0.00105141    0.00105141    0.00105141    0.00105141    0.000488068   0.000488068   0.000488068   0.000488068   0.000488068  
300           0.00105141    0.00105141    0.00105141    0.00105141    0.00105141    0.00105141    0.000488068   0.000488068   0.000488068   0.000488068   0.000488068  
350           0.00105141    0.00105141    0.00105141    0.00105141    0.00105141    0.00105141    0.000488068   0.000488068   0.000488068   0.000488068   0.000488068  
400           0.00105141    0.00105141    0.00105141    0.00105141    0.00105141    0.00105141    0.000488068   0.000488068   0.000488068   0.000488068   0.000488068  
450           0.00105141    0.00105141    0.00105141    0.00105141    0.00105141    0.00105141    0.000488068   0.000488068   0.000488068   0.000488068   0.000488068  
500           0.00105141    0.00105141    0.00105141    0.00105141    0.00105141    0.00105141    0.000488068   0.000488068   0.000488068   0.000488068   0.000488068  
550           0.00105141    0.00105141    0.00105141    0.00105141    0.00105141    0.00105141    0.000488068   0.000488068   0.000488068   0.000488068   0.000488068  
600           0.00105141    0.00105141    0.00105141    0.00105141    0.00105141    0.00105141    0.000488068   0.000488068   0.000488068   0.000488068   0.000488068  
650           0.00105141    0.00105141    0.00105141    0.00105141    0.00105141    0.00105141    0.000488068   0.000488068   0.000488068   0.000488068   0.000488068  
700           0.00105141    0.00105141    0.00105141    0.00105141    0.00105141    0.00105141    0.000488068   0.000488068   0.000488068   0.000488068   0.000488068  
750           0.00105141    0.00105141    0.00105141    0.00105141    0.00105141    0.00105141    0.000488068   0.000488068   0.000488068   0.000488068   0.000488068  
800           0.00105141    0.00105141    0.00105141    0.00105141    0.00105141    0.00105141    0.000488068   0.000488068   0.000488068   0.000488068   0.000488068  
850           0.00105141    0.00105141    0.00105141    0.00105141    0.00105141    0.00105141    0.000488068   0.000488068   0.000488068   0.000488068   0.000488068  
900           0.00105141    0.00105141    0.00105141    0.00105141    0.00105141    0.00105141    0.000488068   0.000488068   0.000488068   0.000488068   0.000488068  
950           0.00105141    0.00105141    0.00105141    0.00105141    0.00105141    0.00105141    0.000488068   0.000488068   0.000488068   0.000488068   0.000488068  
1000          0.00105141    0.00105141    0.00105141    0.00105141    0.00105141    0.00105141    0.000488068   0.000488068   0.000488068   0.000488068   0.000488068  
1050          0.00105141    0.00105141    0.00105141    0.00105141    0.00105141    0.00105141    0.000488068   0.000488068   0.000488068   0.000488068   0.000488068  
1100          0.00105141    0.00105141    0.00105141    0.00105141    0.00105141    0.00105141    0.000488068   0.000488068   0.000488068   0.000488068   0.000488068  
1150          0.00105141    0.00105141    0.00105141    0.00105141    0.00105141    0.00105141    0.000488068   0.000488068   0.000488068   0.000488068   0.000488068  
1200          0.00105141    0.00105141    0.00105141    0.00105141    0.00105141    0.00105141    0.000488068   0.000488068   0.000488068   0.000488068   0.000488068  
1250          0.00105141    0.00105141    0.00105141    0.00105141    0.00105141    0.00105141    0.000488068   0.000488068   0.000488068   0.000488068   0.000488068  
1300          0.00105141    0.00105141    0.00105141    0.00105141    0.00105141    0.00105141    0.000488068   0.000488068   0.000488068   0.000488068   0.000488068  
1350          0.00105141    0.00105141    0.00105141    0.00105141    0.00105141    0.00105141    0.000488068   0.000488068   0.000488068   0.000488068   0.000488068  
1400          0.00105141    0.00105141    0.00105141    0.00105141    0.00105141    0.00105141    0.000488068   0.000488068   0.000488068   0.000488068   0.000488068  
1450          0.00105141    0.00105141    0.00105141    0.00105141    0.00105141    0.00105141    0.000488068   0.000488068   0.000488068   0.000488068   0.000488068  
1500          0.00105141    0.00105141    0.00105141    0.00105141    0.00105141    0.00105141    0.000488068   0.000488068   0.000488068   0.000488068   0.000488068  
1550          0.00105141    0.00105141    0.00105141    0.00105141    0.00105141    0.00105141    0.000488068   0.000488068   0.000488068   0.000488068   0.000488068  
1600          0.00105141    0.00105141    0.00105141    0.00105141    0.00105141    0.00105141    0.000488068   0.000488068   0.000488068   0.000488068   0.000488068  
1650          0.00105141    0.00105141    0.00105141    0.00105141    0.00105141    0.00105141    0.000488068   0.000488068   0.000488068   0.000488068   0.000488068  
1700          0.00105141    0.00105141    0.00105141    0.00105141    0.00105141    0.00105141    0.000488068   0.000488068   0.000488068   0.000488068   0.000488068  
1750          0.00105141    0.00105141    0.00105141    0.00105141    0.00105141    0.00105141    0.000488068   0.000488068   0.000488068   0.000488068   0.000488068  
1800          0.00105141    0.00105141    0.00105141    0.00105141    0.00105141    0.00105141    0.000488068   0.000488068   0.000488068   0.000488068   0.000488068  
1850          0.00105141    0.00105141    0.00105141    0.00105141    0.00105141    0.00105141    0.000488068   0.000488068   0.000488068   0.000488068   0.000488068  
1900          0.00105141    0.00105141    0.00105141    0.00105141    0.00105141    0.00105141    0.000488068   0.000488068   0.000488068   0.000488068   0.000488068  
1950          0.00105141    0.00105141    0.00105141    0.00105141    0.00105141    0.00105141    0.000488068   0.000488068   0.000488068   0.000488068   0.000488068  
2000          0.00105141    0.00105141    0.00105141    0.00105141    0.00105141    0.00105141    0.000488068   0.000488068   0.000488068   0.000488068   0.000488068  
2050          0.00105141    0.00105141    0.00105141    0.00105141    0.00105141    0.00105141    0.000488068   0.000488068   0.000488068   0.000488068   0.000488068  
2100          0.00105141    0.00105141    0.00105141    0.00105141    0.00105141    0.00105141    0.000488068   0.000488068   0.000488068   0.000488068   0.000488068  
2150          0.00105141    0.00105141    0.00105141    0.00105141    0.00105141    0.00105141    0.000488068   0.000488068   0.000488068   0.000488068   0.000488068  
2200          0.00105141    0.00105141    0.00105141    0.00105141    0.00105141    0.00105141    0.000488068   0.000488068   0.000488068   0.000488068   0.000488068  
2250          0.00105141    0.00105141    0.00105141    0.00105141    0.00105141    0.00105141    0.000488068   0.000488068   0.000488068   0.000488068   0.000488068  
2300          0.00105141    0.00105141    0.00105141    0.00105141    0.00105141    0.00105141    0.000488068   0.000488068   0.000488068   0.000488068   0.000488068  
2350          0.00105141    0.00105141    0.00105141    0.00105141    0.00105141    0.00105141    0.000488068   0.000488068   0.000488068   0.000488068   0.000488068  
2400          0.00105141    0.00105141    0.00105141    0.00105141    0.00105141    0.00105141    0.000488068   0.000488068   0.000488068   0.000488068   0.000488068  
2450          0.00105141    0.00105141    0.00105141    0.00105141    0.00105141    0.00105141    0.000488068   0.000488068   0.000488068   0.000488068   0.000488068  
2500          0.00105141    0.00105141    0.00105141    0.00105141    0.00105141    0.00105141    0.000488068   0.000488068   0.000488068   0.000488068   0.000488068  
2550          0.00105141    0.00105141    0.00105141    0.00105141    0.00105141    0.00105141    0.000488068   0.000488068   0.000488068   0.000488068   0.000488068  
2600          0.00105141    0.00105141    0.00105141    0.00105141    0.00105141    0.00105141    0.000488068   0.000488068   0.000488068   0.000488068   0.000488068  
2650          0.00105141    0.00105141    0.00105141    0.00105141    0.00105141    0.00105141    0.000488068   0.000488068   0.000488068   0.000488068   0.000488068  
2700          0.00105141    0.00105141    0.00105141    0.00105141    0.00105141    0.00105141    0.000488068   0.000488068   0.000488068   0.000488068   0.000488068  
2750          0.00105141    0.00105141    0.00105141    0.00105141    0.00105141    0.00105141    0.000488068   0.000488068   0.000488068   0.000488068   0.000488068  
2800          0.00105141    0.00105141    0.00105141    0.00105141    0.00105141    0.00105141    0.000488068   0.000488068   0.000488068   0.000488068   0.000488068  
2850          0.00105141    0.00105141    0.00105141    0.00105141    0.00105141    0.00105141    0.000488068   0.000488068   0.000488068   0.000488068   0.000488068  
2900          0.00105141    0.00105141    0.00105141    0.00105141    0.00105141    0.00105141    0.000488068   0.000488068   0.000488068   0.000488068   0.000488068  
2950          0.00105141    0.00105141    0.00105141    0.00105141    0.00105141    0.00105141    0.000488068   0.000488068   0.000488068   0.000488068   0.000488068  
3000          0.00105141    0.00105141    0.00105141    0.00105141    0.00105141    0.00105141    0.000488068   0.000488068   0.000488068   0.000488068   0.000488068  
3050          0.00105141    0.00105141    0.00105141    0.00105141    0.00105141    0.00105141    0.000488068   0.000488068   0.000488068   0.000488068   0.000488068  
3100          0.00105141    0.00105141    0.00105141    0.00105141    0.00105141    0.00105141    0.000488068   0.000488068   0.000488068   0.000488068   0.000488068  
3150          0.00105141    0.00105141    0.00105141    0.00105141    0.00105141    0.00105141    0.000488068   0.000488068   0.000488068   0.000488068   0.000488068  
3200          0.00105141    0.00105141    0.00105141    0.00105141    0.00105141    0.00105141    0.000488068   0.000488068   0.000488068   0.000488068   0.000488068  
3250          0.00105141    0.00105141    0.00105141    0.00105141    0.00105141    0.00105141    0.000488068   0.000488068   0.000488068   0.000488068   0.000488068  
3300          0.00105141    0.00105141    0.00105141    0.00105141    0.00105141    0.00105141    0.000488068   0.000488068   0.000488068   0.000488068   0.000488068  
3350          0.00105141    0.00105141    0.00105141    0.00105141    0.00105141    0.00105141    0.000488068   0.000488068   0.000488068   0.000488068   0.000488068  
3400          0.00105141    0.00105141    0.00105141    0.00105141    0.00105141    0.00105141    0.000488068   0.000488068   0.000488068   0.000488068   0.000488068  
3450          0.00105141    0.00105141    0.00105141    0.00105141    0.00105141    0.00105141    0.000488068   0.000488068   0.000488068   0.000488068   0.000488068  
3500          0.00105141    0.00105141    0.00105141    0.00105141    0.00105141    0.00105141    0.000488068   0.000488068   0.000488068   0.000488068   0.000488068  
3550          0.00105141    0.00105141    0.00105141    0.00105141    0.00105141    0.00105141    0.000488068   0.000488068   0.000488068   0.000488068   0.000488068  
3600          0.00105141    0.00105141    0.00105141    0.00105141    0.00105141    0.00105141    0.000488068   0.000488068   0.000488068   0.000488068   0.000488068  
3650          0.00105141    0.00105141    0.00105141    0.00105141    0.00105141    0.00105141    0.000488068   0.000488068   0.000488068   0.000488068   0.000488068  
3700          0.00105141    0.00105141    0.00105141    0.00105141    0.00105141    0.00105141    0.000488068   0.000488068   0.000488068   0.000488068   0.000488068  
3750          0.00105141    0.00105141    0.00105141    0.00105141    0.00105141    0.00105141    0.000488068   0.000488068   0.000488068   0.000488068   0.000488068  
3800          0.00105141    0.00105141    0.00105141    0.00105141    0.00105141    0.00105141    0.000488068   0.000488068   0.000488068   0.000488068   0.000488068  
3850          0.00105141    0.00105141    0.00105141    0.00105141    0.00105141    0.00105141    0.000488068   0.000488068   0.000488068   0.000488068   0.000488068  
3900          0.00105141    0.00105141    0.00105141    0.00105141    0.00105141    0.00105141    0.000488068   0.000488068   0.000488068   0.000488068   0.000488068  
3950          0.00105141    0.00105141    0.00105141    0.00105141    0.00105141    0.00105141    0.000488068   0.000488068   0.000488068   0.000488068   0.000488068  
4000          0.00105141    0.00105141    0.00105141    0.00105141    0.00105141    0.00105141    0.000488068   0.000488068   0.000488068   0.000488068   0.000488068  
4050          0.00105141    0.00105141    0.00105141    0.00105141    0.00105141    0.00105141    0.000488068   0.000488068   0.000488068   0.000488068   0.000488068  
4100          0.00105141    0.00105141    0.00105141    0.00105141    0.00105141    0.00105141    0.000488068   0.000488068   0.000488068   0.000488068   0.000488068  
4150          0.00105141    0.00105141    0.00105141    0.00105141    0.00105141    0.00105141    0.000488068   0.000488068   0.000488068   0.000488068   0.000488068  
4200          0.00105141    0.00105141    0.00105141    0.00105141    0.00105141    0.00105141    0.000488068   0.000488068   0.000488068   0.000488068   0.000488068  
4250          0.00105141    0.00105141    0.00105141    0.00105141    0.00105141    0.00105141    0.000488068   0.000488068   0.000488068   0.000488068   0.000488068  
4300          0.00105141    0.00105141    0.00105141    0.00105141    0.00105141    0.00105141    0.000488068   0.000488068   0.000488068   0.000488068   0.000488068  
4350          0.00105141    0.00105141    0.00105141    0.00105141    0.00105141    0.00105141    0.000488068   0.000488068   0.000488068   0.000488068   0.000488068  
4400          0.00105141    0.00105141    0.00105141    0.00105141    0.00105141    0.00105141    0.000488068   0.000488068   0.000488068   0.000488068   0.000488068  
4450          0.00105141    0.00105141    0.00105141    0.00105141    0.00105141    0.00105141    0.000488068   0.000488068   0.000488068   0.000488068   0.000488068  
4500          0.00105141    0.00105141    0.00105141    0.00105141    0.00105141    0.00105141    0.000488068   0.000488068   0.000488068   0.000488068   0.000488068  
4550          0.00105141    0.00105141    0.00105141    0.00105141    0.00105141    0.00105141    0.000488068   0.000488068   0.000488068   0.000488068   0.000488068  
4600          0.00105141    0.00105141    0.00105141    0.00105141    0.00105141    0.00105141    0.000488068   0.000488068   0.000488068   0.000488068   0.000488068  
4650          0.00105141    0.00105141    0.00105141    0.00105141    0.00105141    0.00105141    0.000488068   0.000488068   0.000488068   0.000488068   0.000488068  
4700          0.00105141    0.00105141    0.00105141    0.00105141    0.00105141    0.00105141    0.000488068   0.000488068   0.000488068   0.000488068   0.000488068  
4750          0.00105141    0.00105141    0.00105141    0.00105141    0.00105141    0.00105141    0.000488068   0.000488068   0.000488068   0.000488068   0.000488068  
4800          0.00105141    0.00105141    0.00105141    0.00105141    0.00105141    0.00105141    0.000488068   0.000488068   0.000488068   0.000488068   0.000488068  
4850          0.00105141    0.00105141    0.00105141    0.00105141    0.00105141    0.00105141    0.000488068   0.000488068   0.000488068   0.000488068   0.000488068  
4900          0.00105141    0.00105141    0.00105141    0.00105141    0.00105141    0.00105141    0.000488068   0.000488068   0.000488068   0.000488068   0.000488068  
4950          0.00105141    0.00105141    0.00105141    0.00105141    0.00105141    0.00105141    0.000488068   0.000488068   0.000488068   0.000488068   0.000488068  
5000          0.00105141    0.00105141    0.00105141    0.00105141    0.00105141    0.00105141    0.000488068   0.000488068   0.000488068   0.000488068   0.000488068  
5050          0.00105141    0.00105141    0.00105141    0.00105141    0.00105141    0.00105141    0.000488068   0.000488068   0.000488068   0.000488068   0.000488068  
5100          0.00105141    0.00105141    0.00105141    0.00105141    0.00105141    0.00105141    0.000488068   0.000488068   0.000488068   0.000488068   0.000488068  
5150          0.00105141    0.00105141    0.00105141    0.00105141    0.00105141    0.00105141    0.000488068   0.000488068   0.000488068   0.000488068   0.000488068  
5200          0.00105141    0.00105141    0.00105141    0.00105141    0.00105141    0.00105141    0.000488068   0.000488068   0.000488068   0.000488068   0.000488068  
5250          0.00105141    0.00105141    0.00105141    0.00105141    0.00105141    0.00105141    0.000488068   0.000488068   0.000488068   0.000488068   0.000488068  
5300          0.00105141    0.00105141    0.00105141    0.00105141    0.00105141    0.00105141    0.000488068   0.000488068   0.000488068   0.000488068   0.000488068  
5350          0.00105141    0.00105141    0.00105141    0.00105141    0.00105141    0.00105141    0.000488068   0.000488068   0.000488068   0.000488068   0.000488068  
5400          0.00105141    0.00105141    0.00105141    0.00105141    0.00105141    0.00105141    0.000488068   0.000488068   0.000488068   0.000488068   0.000488068  
5450          0.00105141    0.00105141    0.00105141    0.00105141    0.00105141    0.00105141    0.000488068   0.000488068   0.000488068   0.000488068   0.000488068  
5500          0.00105141    0.00105141    0.00105141    0.00105141    0.00105141    0.00105141    0.000488068   0.000488068   0.000488068   0.000488068   0.000488068  
5550          0.00105141    0.00105141    0.00105141    0.00105141    0.00105141    0.00105141    0.000488068   0.000488068   0.000488068   0.000488068   0.000488068  
5600          0.00105141    0.00105141    0.00105141    0.00105141    0.00105141    0.00105141    0.000488068   0.000488068   0.000488068   0.000488068   0.000488068  
5650          0.00105141    0.00105141    0.00105141    0.00105141    0.00105141    0.00105141    0.000488068   0.000488068   0.000488068   0.000488068   0.000488068  
5700          0.00105141    0.00105141    0.00105141    0.00105141    0.00105141    0.00105141    0.000488068   0.000488068   0.000488068   0.000488068   0.000488068  
5750          0.00105141    0.00105141    0.00105141    0.00105141    0.00105141    0.00105141    0.000488068   0.000488068   0.000488068   0.000488068   0.000488068  
5800          0.00105141    0.00105141    0.00105141    0.00105141    0.00105141    0.00105141    0.000488068   0.000488068   0.000488068   0.000488068   0.000488068  
5850          0.00105141    0.00105141    0.00105141    0.00105141    0.00105141    0.00105141    0.000488068   0.000488068   0.000488068   0.000488068   0.000488068  
5900          0.00105141    0.00105141    0.00105141    0.00105141    0.00105141    0.00105141    0.000488068   0.000488068   0.000488068   0.000488068   0.000488068  
5950          0.00105141    0.00105141    0.00105141    0.00105141    0.00105141    0.00105141    0.000488068   0.000488068   0.000488068   0.000488068   0.000488068  
6000          0.00105141    0.00105141    0.00105141    0.00105141    0.00105141    0.00105141    0.000488068   0.000488068   0.000488068   0.000488068   0.000488068  
6050          0.00105141    0.00105141    0.00105141    0.00105141    0.00105141    0.00105141    0.000488068   0.000488068   0.000488068   0.000488068   0.000488068  
6100          0.00105141    0.00105141    0.00105141    0.00105141    0.00105141    0.00105141    0.000488068   0.000488068   0.000488068   0.000488068   0.000488068  
6150          0.00105141    0.00105141    0.00105141    0.00105141    0.00105141    0.00105141    0.000488068   0.000488068   0.000488068   0.000488068   0.000488068  
6200          0.00105141    0.00105141    0.00105141    0.00105141    0.00105141    0.00105141    0.000488068   0.000488068   0.000488068   0.000488068   0.000488068  
6250          0.00105141    0.00105141    0.00105141    0.00105141    0.00105141    0.00105141    0.000488068   0.000488068   0.000488068   0.000488068   0.000488068  
6300          0.00105141    0.00105141    0.00105141    0.00105141    0.00105141    0.00105141    0.000488068   0.000488068   0.000488068   0.000488068   0.000488068  
6350          0.00105141    0.00105141    0.00105141    0.00105141    0.00105141    0.00105141    0.000488068   0.000488068   0.000488068   0.000488068   0.000488068  
6400          0.00105141    0.00105141    0.00105141    0.00105141    0.00105141    0.00105141    0.000488068   0.000488068   0.000488068   0.000488068   0.000488068  
6450          0.00105141    0.00105141    0.00105141    0.00105141    0.00105141    0.00105141    0.000488068   0.000488068   0.000488068   0.000488068   0.000488068  
6500          0.00105141    0.00105141    0.00105141    0.00105141    0.00105141    0.00105141    0.000488068   0.000488068   0.000488068   0.000488068   0.000488068  
6550          0.00105141    0.00105141    0.00105141    0.00105141    0.00105141    0.00105141    0.000488068   0.000488068   0.000488068   0.000488068   0.000488068  
6600          0.00105141    0.00105141    0.00105141    0.00105141    0.00105141    0.00105141    0.000488068   0.000488068   0.000488068   0.000488068   0.000488068  
6650          0.00105141    0.00105141    0.00105141    0.00105141    0.00105141    0.00105141    0.000488068   0.000488068   0.000488068   0.000488068   0.000488068  
6700          0.00105141    0.00105141    0.00105141    0.00105141    0.00105141    0.00105141    0.000488068   0.000488068   0.000488068   0.000488068   0.000488068  
6750          0.00105141    0.00105141    0.00105141    0.00105141    0.00105141    0.00105141    0.000488068   0.000488068   0.000488068   0.000488068   0.000488068  
6800          0.00105141    0.00105141    0.00105141    0.00105141    0.00105141    0.00105141    0.000488068   0.000488068   0.000488068   0.000488068   0.000488068  
6850          0.00105141    0.00105141    0.00105141    0.00105141    0.00105141    0.00105141    0.000488068   0.000488068   0.000488068   0.000488068   0.000488068  
6900          0.00105141    0.00105141    0.00105141    0.00105141    0.00105141    0.00105141    0.000488068   0.000488068   0.000488068   0.000488068   0.000488068  
6950          0.00105141    0.00105141    0.00105141    0.00105141    0.00105141    0.00105141    0.000488068   0.000488068   0.000488068   0.000488068   0.000488068  
7000          0.00105141    0.00105141    0.00105141    0.00105141    0.00105141    0.00105141    0.000488068   0.000488068   0.000488068   0.000488068   0.000488068  
7050          0.00105141    0.00105141    0.00105141    0.00105141    0.00105141    0.00105141    0.000488068   0.000488068   0.000488068   0.000488068   0.000488068  
7100          0.00105141    0.00105141    0.00105141    0.00105141    0.00105141    0.00105141    0.000488068   0.000488068   0.000488068   0.000488068   0.000488068  
7150          0.00105141    0.00105141    0.00105141    0.00105141    0.00105141    0.00105141    0.000488068   0.000488068   0.000488068   0.000488068   0.000488068  
7200          0.00105141    0.00105141    0.00105141    0.00105141    0.00105141    0.00105141    0.000488068   0.000488068   0.000488068   0.000488068   0.000488068  
7250          0.00105141    0.00105141    0.00105141    0.00105141    0.00105141    0.00105141    0.000488068   0.000488068   0.000488068   0.000488068   0.000488068  
7300          0.00105141    0.00105141    0.00105141    0.00105141    0.00105141    0.00105141    0.000488068   0.000488068   0.000488068   0.000488068   0.000488068  
7350          0.00105141    0.00105141    0.00105141    0.00105141    0.00105141    0.00105141    0.000488068   0.000488068   0.000488068   0.000488068   0.000488068  
7400          0.00105141    0.00105141    0.00105141    0.00105141    0.00105141    0.00105141    0.000488068   0.000488068   0.000488068   0.000488068   0.000488068  
7450          0.00105141    0.00105141    0.00105141    0.00105141    0.00105141    0.00105141    0.000488068   0.000488068   0.000488068   0.000488068   0.000488068  
7500          0.00105141    0.00105141    0.00105141    0.00105141    0.00105141    0.00105141    0.000488068   0.000488068   0.000488068   0.000488068   0.000488068  
7550          0.00105141    0.00105141    0.00105141    0.00105141    0.00105141    0.00105141    0.000488068   0.000488068   0.000488068   0.000488068   0.000488068  
7600          0.00105141    0.00105141    0.00105141    0.00105141    0.00105141    0.00105141    0.000488068   0.000488068   0.000488068   0.000488068   0.000488068  
7650          0.00105141    0.00105141    0.00105141    0.00105141    0.00105141    0.00105141    0.000488068   0.000488068   0.000488068   0.000488068   0.000488068  
7700          0.00105141    0.00105141    0.00105141    0.00105141    0.00105141    0.00105141    0.000488068   0.000488068   0.000488068   0.000488068   0.000488068  
7750          0.00105141    0.00105141    0.00105141    0.00105141    0.00105141    0.00105141    0.000488068   0.000488068   0.000488068   0.000488068   0.000488068  
7800          0.00105141    0.00105141    0.00105141    0.00105141    0.00105141    0.00105141    0.000488068   0.000488068   0.000488068   0.000488068   0.000488068  
7850          0.00105141    0.00105141    0.00105141    0.00105141    0.00105141    0.00105141    0.000488068   0.000488068   0.000488068   0.000488068   0.000488068  
7900          0.00105141    0.00105141    0.00105141    0.00105141    0.00105141    0.00105141    0.000488068   0.000488068   0.000488068   0.000488068   0.000488068  
7950          0.00105141    0.00105141    0.00105141    0.00105141    0.00105141    0.00105141    0.000488068   0.000488068   0.000488068   0.000488068   0.000488068  
8000          0.00105141    0.00105141    0.00105141    0.00105141    0.00105141    0.00105141    0.000488068   0.000488068   0.000488068   0.000488068   0.000488068  
8050          0.00105141    0.00105141    0.00105141    0.00105141    0.00105141    0.00105141    0.000488068   0.000488068   0.000488068   0.000488068   0.000488068  
8100          0.00105141    0.00105141    0.00105141    0.00105141    0.00105141    0.00105141    0.000488068   0.000488068   0.000488068   0.000488068   0.000488068  
8150          0.00105141    0.00105141    0.00105141    0.00105141    0.00105141    0.00105141    0.000488068   0.000488068   0.000488068   0.000488068   0.000488068  
8200          0.00105141    0.00105141    0.00105141    0.00105141    0.00105141    0.00105141    0.000488068   0.000488068   0.000488068   0.000488068   0.000488068  
8250          0.00105141    0.00105141    0.00105141    0.00105141    0.00105141    0.00105141    0.000488068   0.000488068   0.000488068   0.000488068   0.000488068  
8300          0.00105141    0.00105141    0.00105141    0.00105141    0.00105141    0.00105141    0.000488068   0.000488068   0.000488068   0.000488068   0.000488068  
8350          0.00105141    0.00105141    0.00105141    0.00105141    0.00105141    0.00105141    0.000488068   0.000488068   0.000488068   0.000488068   0.000488068  
8400          0.00105141    0.00105141    0.00105141    0.00105141    0.00105141    0.00105141    0.000488068   0.000488068   0.000488068   0.000488068   0.000488068  
8450          0.00105141    0.00105141    0.00105141    0.00105141    0.00105141    0.00105141    0.000488068   0.000488068   0.000488068   0.000488068   0.000488068  
8500          0.00105141    0.00105141    0.00105141    0.00105141    0.00105141    0.00105141    0.000488068   0.000488068   0.000488068   0.000488068   0.000488068  
8550          0.00105141    0.00105141    0.00105141    0.00105141    0.00105141    0.00105141    0.000488068   0.000488068   0.000488068   0.000488068   0.000488068  
8600          0.00105141    0.00105141    0.00105141    0.00105141    0.00105141    0.00105141    0.000488068   0.000488068   0.000488068   0.000488068   0.000488068  
8650          0.00105141    0.00105141    0.00105141    0.00105141    0.00105141    0.00105141    0.000488068   0.000488068   0.000488068   0.000488068   0.000488068  
8700          0.00105141    0.00105141    0.00105141    0.00105141    0.00105141    0.00105141    0.000488068   0.000488068   0.000488068   0.000488068   0.000488068  
8750          0.00105141    0.00105141    0.00105141    0.00105141    0.00105141    0.00105141    0.000488068   0.000488068   0.000488068   0.000488068   0.000488068  