# Probe 0 (0.0015 0.0015 0)
# Probe 1 (0.0015 0.0015 0.01)
# Probe 2 (0.0015 0.0015 0.02)
# Probe 3 (0.0015 0.0015 0.03)
# Probe 4 (0.0015 0.0015 0.04)
# Probe 5 (0.0015 0.0015 0.05)
# Probe 6 (0.0015 0.0015 0.06)
# Probe 7 (0.0015 0.0015 0.07)
# Probe 8 (0.0015 0.0015 0.08)
# Probe 9 (0.0015 0.0015 0.09)
# Probe 10 (0.0015 0.0015 0.1)
# Time        0             1             2             3             4             5             6             7             8             9             10           
50            (19.723 19.723 -1.7749e+07) (10.5015 10.5015 -3.97473e+06) (1.67154 1.67154 -328491) (0.290524 0.290524 -20008) (0.0136225 0.0136225 3330.67) (0.0224347 0.0224347 32303.9) (0.00267963 0.00267963 599.353) (0.00471759 0.0047176 1.02224) (0.00712398 0.00712397 -200.434) (-0.559867 -0.559867 -101777) (56.1466 56.1466 -1.49196e+07)
100           (59.0357 59.0357 -1.2826e+07) (-14.6698 -14.6698 -6.03873e+06) (-7.26599 -7.26599 -980428) (-0.680847 -0.680847 -100890) (-0.0315243 -0.0315244 -2243.12) (-0.242002 -0.242002 20678.6) (0.065193 0.065193 1633.53) (0.000816264 0.00081625 5.13113) (-0.0961609 -0.0961609 -1593.58) (-14.5075 -14.5075 -301383) (86.2223 86.2223 -1.20677e+07)
150           (-36.6173 -36.6173 -1.05206e+07) (1.35027 1.35027 -6.65664e+06) (7.12201 7.12201 -1.7435e+06) (1.85714 1.85714 -262495) (0.304971 0.304971 -23516.3) (0.159726 0.159726 13266.3) (-0.0522496 -0.0522495 2772.97) (0.00071608 0.000716066 4.27339) (0.343563 0.343563 -5860.92) (13.8016 13.8016 -549349) (-69.4261 -69.4261 -1.03534e+07)
200           (-0.796524 -0.796524 -9.12952e+06) (2.30619 2.30619 -6.63533e+06) (-0.885925 -0.885925 -2.42075e+06) (2.20456 2.20456 -494075) (0.551206 0.551206 -67116.5) (0.155278 0.155278 2892.04) (-0.00792882 -0.00792885 3744.48) (-0.516336 -0.516336 -35.9887) (-4.84978 -4.84978 -14707.9) (-0.86198 -0.86198 -801345) (51.6342 51.6342 -9.19148e+06)
250           (41.6131 41.6131 -8.17492e+06) (16.0722 16.0722 -6.41297e+06) (-14.3105 -14.3105 -2.93076e+06) (-9.48086 -9.48086 -767284) (-2.33878 -2.33878 -136021) (-0.955409 -0.955409 -14620.8) (0.0180266 0.0180265 4323.99) (-0.0798519 -0.0798519 -190.637) (-1.8634 -1.8634 -29318.6) (-18.3137 -18.3137 -1.03358e+06) (-34.3571 -34.3571 -8.3416e+06)
300           (-63.6061 -63.6061 -7.46803e+06) (-17.7383 -17.7383 -6.14373e+06) (3.72543 3.72543 -3.27751e+06) (5.377 5.377 -1.05139e+06) (2.23115 2.23115 -228957) (-3.67334 -3.67334 -42265.2) (-0.189302 -0.189302 4252.09) (0.0619892 0.0619891 -577.062) (2.63789 2.63789 -50106.9) (24.4471 24.4471 -1.23673e+06) (-52.0679 -52.0679 -7.68719e+06)
350           (7.51024 7.51024 -6.91734e+06) (10.7401 10.7401 -5.87739e+06) (-2.61404 -2.61404 -3.49724e+06) (-5.91297 -5.91297 -1.32253e+06) (-3.22242 -3.22242 -341402) (-3.62018 -3.62018 -81646.1) (-0.103259 -0.103259 3176.06) (-0.0639849 -0.0639849 -1353.23) (-1.55317 -1.55317 -76838.3) (-8.05751 -8.05751 -1.40939e+06) (-28.1981 -28.1981 -7.16423e+06)
400           (6.89428 6.89428 -6.47287e+06) (9.99197 9.99197 -5.62919e+06) (-0.458926 -0.458926 -3.62689e+06) (-5.60798 -5.60798 -1.56627e+06) (-3.41841 -3.41841 -467399) (-2.7961 -2.7961 -133688) (-0.211517 -0.211517 653.956) (-0.11431 -0.11431 -2689.93) (-2.1192 -2.1192 -108684) (-8.5013 -8.5013 -1.554e+06) (-18.3647 -18.3647 -6.73461e+06)
450           (5.94072 5.94072 -6.10433e+06) (8.03932 8.03932 -5.40259e+06) (0.671709 0.671709 -3.69554e+06) (-4.40965 -4.40965 -1.77643e+06) (-3.17405 -3.17405 -600551) (-2.13975 -2.13975 -197758) (-0.329737 -0.329737 -3840.5) (-0.158352 -0.158353 -4766.31) (-2.18377 -2.18377 -144641) (-6.6002 -6.6002 -1.67407e+06) (-13.681 -13.681 -6.37362e+06)
500           (4.26985 4.26985 -5.79229e+06) (5.95129 5.95129 -5.197e+06) (1.11691 1.11691 -3.72345e+06) (-3.04436 -3.04436 -1.95245e+06) (-2.64148 -2.64148 -735177) (-2.61246 -2.61246 -272436) (-0.418492 -0.418492 -10861.7) (-0.180721 -0.180721 -7753.59) (-1.83332 -1.83332 -183637) (-4.11549 -4.11549 -1.77327e+06) (-12.1295 -12.1295 -6.06485e+06)
550           (3.54668 3.54668 -5.52364e+06) (4.67662 4.67662 -5.01056e+06) (1.29161 1.29161 -3.72426e+06) (-2.14198 -2.14198 -2.09692e+06) (-2.30194 -2.30194 -866775) (-3.63242 -3.63242 -355729) (-0.51356 -0.51356 -20941.8) (-0.205091 -0.205091 -11805.5) (-1.54923 -1.54923 -224654) (-2.54783 -2.54783 -1.85498e+06) (-10.4138 -10.4138 -5.79685e+06)
600           (0.498723 0.498723 -5.28918e+06) (3.45231 3.45231 -4.84111e+06) (1.83859 1.83859 -3.70709e+06) (-0.801592 -0.801592 -2.21369e+06) (-1.95272 -1.95272 -992127) (-7.42167 -7.42167 -445394) (-0.453424 -0.453424 -34548.6) (-0.169642 -0.169642 -17053.6) (-0.875528 -0.875528 -266801) (-0.925092 -0.925092 -1.92212e+06) (-12.2893 -12.2893 -5.56139e+06)
650           (-1.42019 -1.42019 -5.08223e+06) (2.58937 2.58937 -4.68659e+06) (2.0041 2.0041 -3.67806e+06) (-0.020594 -0.020594 -2.30691e+06) (-1.63293 -1.63293 -1.10918e+06) (-10.8664 -10.8664 -539186) (-0.266786 -0.266786 -52055.8) (-0.092687 -0.092687 -23606.6) (-0.151235 -0.151235 -309335) (0.237138 0.237138 -1.97715e+06) (-14.3772 -14.3772 -5.35239e+06)
700           (-3.42753 -3.42753 -4.89779e+06) (1.70337 1.70337 -4.54518e+06) (1.9739 1.9739 -3.6413e+06) (0.574199 0.574199 -2.38048e+06) (-1.28201 -1.28201 -1.21683e+06) (-15.2697 -15.2697 -635041) (0.171036 0.171036 -73724.8) (0.0737755 0.0737755 -31551) (0.811011 0.811011 -351667) (1.31408 1.31408 -2.02211e+06) (-17.3379 -17.3379 -5.16526e+06)
750           (-5.7988 -5.7988 -4.73207e+06) (0.596608 0.596608 -4.41526e+06) (1.65602 1.65602 -3.59962e+06) (0.985113 0.985113 -2.43781e+06) (-0.865741 -0.865741 -1.31467e+06) (-21.4032 -21.4032 -731158) (1.00867 1.00867 -99696.7) (0.38978 0.38978 -40953.4) (2.12912 2.12912 -393345) (2.43117 2.43117 -2.05867e+06) (-21.2233 -21.2233 -4.99643e+06)
800           (-8.57257 -8.57257 -4.5821e+06) (-0.789628 -0.789628 -4.29547e+06) (1.0075 1.0075 -3.55498e+06) (1.17035 1.17035 -2.48181e+06) (-0.412323 -0.412323 -1.40278e+06) (-29.8335 -29.8335 -826043) (2.36887 2.36887 -129995) (0.916435 0.916435 -51862.5) (3.83319 3.83319 -434033) (3.57298 3.57298 -2.08821e+06) (-25.7499 -25.7499 -4.84312e+06)
850           (-11.5373 -11.5373 -4.44555e+06) (-2.38161 -2.38161 -4.18463e+06) (0.0715273 0.0715273 -3.50871e+06) (1.09778 1.09778 -2.51489e+06) (0.0110894 0.0110894 -1.48157e+06) (-40.4153 -40.4153 -918517) (4.26912 4.26912 -164537) (1.68928 1.68928 -64311) (5.8241 5.8241 -473499) (4.62491 4.62491 -2.11187e+06) (-30.3169 -30.3169 -4.70309e+06)
900           (-12.9605 -12.9605 -4.32052e+06) (-2.3732 -2.3732 -4.08173e+06) (-1.01664 -1.01664 -3.46176e+06) (0.79232 0.79232 -2.53903e+06) (3.76207 3.76207 -1.55163e+06) (-51.5112 -51.5112 -1.00775e+06) (11.9938 11.9938 -203145) (0.641025 0.641025 -78317.6) (6.89428 6.89428 -511585) (5.08837 5.08837 -2.13059e+06) (-33.6806 -33.6806 -4.57452e+06)
950           (14.0671 14.0671 -4.20549e+06) (5.57277 5.57277 -3.98589e+06) (2.65559 2.65559 -3.41475e+06) (1.07105 1.07105 -2.55586e+06) (-4.97512 -4.97512 -1.61361e+06) (22.3709 22.3709 -1.09348e+06) (-0.305841 -0.305841 -245577) (-2.40584 -2.40584 -93891.4) (-3.45697 -3.45697 -548199) (-1.87441 -1.87441 -2.14512e+06) (-3.11802 -3.11802 -4.45598e+06)
1000          (13.7023 13.7023 -4.0992e+06) (5.58815 5.58815 -3.89638e+06) (2.30671 2.30671 -3.36815e+06) (0.0237161 0.0237162 -2.56671e+06) (-2.6824 -2.6824 -1.66827e+06) (23.7454 23.7454 -1.17451e+06) (-0.0586357 -0.0586357 -291501) (-1.47711 -1.47711 -111022) (-3.48176 -3.48176 -583307) (-2.9946 -2.9946 -2.15614e+06) (-3.98226 -3.98226 -4.34618e+06)
1050          (13.1772 13.1772 -4.0006e+06) (5.27653 5.27653 -3.81257e+06) (2.05853 2.05853 -3.32227e+06) (0.0551625 0.0551625 -2.57265e+06) (-2.59562 -2.59562 -1.71627e+06) (24.753 24.753 -1.25093e+06) (0.748494 0.748494 -340579) (-1.3472 -1.3472 -129693) (-3.30436 -3.30436 -616907) (-3.1239 -3.1239 -2.16417e+06) (-4.52611 -4.52611 -4.2441e+06)
1100          (12.6646 12.6646 -3.90883e+06) (4.98061 4.98061 -3.73389e+06) (1.80097 1.80097 -3.2773e+06) (0.14199 0.14199 -2.57458e+06) (-2.61965 -2.61965 -1.7583e+06) (25.3544 25.3544 -1.32266e+06) (1.53863 1.53863 -392445) (-1.25079 -1.25079 -149877) (-3.113 -3.113 -649027) (-3.13584 -3.13584 -2.16966e+06) (-4.96349 -4.96349 -4.14889e+06)
1150          (12.1688 12.1688 -3.82314e+06) (4.71012 4.71012 -3.65986e+06) (1.55383 1.55383 -3.23339e+06) (0.209892 0.209892 -2.5732e+06) (-2.63135 -2.63135 -1.79497e+06) (25.5866 25.5866 -1.38972e+06) (2.2709 2.2709 -446719) (-1.15134 -1.15134 -171538) (-2.92596 -2.92596 -679716) (-3.1125 -3.1125 -2.173e+06) (-5.2741 -5.2741 -4.05981e+06)
1200          (11.6976 11.6976 -3.74289e+06) (4.46248 4.46248 -3.59005e+06) (1.3265 1.3265 -3.19062e+06) (0.254319 0.254319 -2.56911e+06) (-2.61536 -2.61536 -1.82686e+06) (25.5361 25.5361 -1.45219e+06) (2.92048 2.92048 -503018) (-1.05333 -1.05333 -194630) (-2.74851 -2.74851 -709038) (-3.0628 -3.0628 -2.1745e+06) (-5.46225 -5.46225 -3.97623e+06)
1250          (11.2552 11.2552 -3.66754e+06) (4.23487 4.23487 -3.52409e+06) (1.12324 1.12324 -3.14904e+06) (0.277877 0.277877 -2.56281e+06) (-2.57108 -2.57108 -1.85449e+06) (25.2858 25.2858 -1.51023e+06) (3.47345 3.47345 -560969) (-0.964378 -0.964378 -219100) (-2.58329 -2.58329 -737068) (-2.98901 -2.98901 -2.17443e+06) (-5.54443 -5.54443 -3.89761e+06)
1300          (-4.56389 -4.56389 -3.59661e+06) (-0.963853 -0.963853 -3.46165e+06) (1.6178 1.6178 -3.10866e+06) (-2.88785 -2.88785 -2.55468e+06) (12.884 12.884 -1.87832e+06) (-44.822 -44.822 -1.56404e+06) (-20.0641 -20.0641 -620227) (-5.84761 -5.84761 -244894) (0.395943 0.395943 -763893) (8.70915 8.70915 -2.17303e+06) (9.2433 9.2433 -3.82347e+06)
1350          (-2.72769 -2.72769 -3.5297e+06) (0.465507 0.465507 -3.40244e+06) (6.25284 6.25284 -3.06949e+06) (-5.5638 -5.5638 -2.54508e+06) (14.754 14.754 -1.89878e+06) (-19.1505 -19.1505 -1.61373e+06) (-16.9914 -16.9914 -680412) (-10.5098 -10.5098 -271931) (-0.807349 -0.807349 -789583) (8.29619 8.29619 -2.1705e+06) (11.5269 11.5269 -3.75341e+06)
1400          (-0.887651 -0.887651 -3.46645e+06) (-0.132969 -0.132969 -3.34619e+06) (8.49875 8.49875 -3.03151e+06) (-4.90574 -4.90574 -2.53427e+06) (10.8391 10.8391 -1.91624e+06) (-5.72534 -5.72534 -1.65969e+06) (-13.8241 -13.8241 -741253) (-8.74004 -8.74004 -300154) (-1.02499 -1.02499 -814234) (6.78818 6.78818 -2.167e+06) (4.40701 4.40701 -3.68707e+06)
1450          (-23.0525 -23.0525 -3.40652e+06) (-23.5636 -23.5636 -3.29267e+06) (4.8435 4.8435 -2.99471e+06) (-25.6423 -25.6423 -2.52248e+06) (17.739 17.739 -1.93104e+06) (-168.813 -168.813 -1.70198e+06) (4.38906 4.38906 -802435) (-2.03301 -2.03301 -329477) (12.4467 12.4467 -837927) (15.5353 15.5353 -2.16268e+06) (-20.864 -20.864 -3.62411e+06)
1500          (1.833 1.833 -3.34968e+06) (-1.12254 -1.12254 -3.24168e+06) (8.21883 8.21883 -2.95903e+06) (-4.07264 -4.07264 -2.50992e+06) (7.1076 7.1076 -1.94345e+06) (2.8666 2.8666 -1.7407e+06) (-13.3937 -13.3937 -863697) (-8.6563 -8.6563 -359825) (-2.97402 -2.97402 -860744) (4.5699 4.5699 -2.15767e+06) (3.68983 3.68983 -3.5643e+06)
1550          (-21.6622 -21.6622 -3.29562e+06) (-21.6851 -21.6851 -3.19303e+06) (5.74289 5.74289 -2.92447e+06) (-18.4471 -18.4471 -2.49673e+06) (10.5128 10.5128 -1.95379e+06) (-114.783 -114.783 -1.77698e+06) (14.8687 14.8687 -924830) (3.37559 3.37559 -391123) (14.2329 14.2329 -882770) (11.8936 11.8936 -2.15209e+06) (-13.092 -13.092 -3.50735e+06)
1600          (-8.9766 -8.9766 -3.24417e+06) (0.212286 0.212286 -3.14656e+06) (-21.395 -21.395 -2.89097e+06) (7.01896 7.01896 -2.48307e+06) (-17.8341 -17.8341 -1.96223e+06) (-76.1724 -76.1724 -1.80991e+06) (38.8247 38.8247 -985611) (24.8498 24.8498 -423285) (8.48513 8.48513 -904074) (-14.4877 -14.4877 -2.14602e+06) (-23.5846 -23.5846 -3.45305e+06)
1650          (-19.5919 -19.5919 -3.19512e+06) (-20.3 -20.3 -3.10208e+06) (0.324699 0.324699 -2.85853e+06) (-19.3645 -19.3645 -2.46901e+06) (6.67509 6.67509 -1.96905e+06) (-144.639 -144.639 -1.84013e+06) (20.2184 20.2184 -1.04584e+06) (14.0028 14.0028 -456219) (19.8182 19.8182 -924734) (13.8738 13.8738 -2.13956e+06) (-16.7782 -16.7782 -3.40121e+06)
1700          (-9.60804 -9.60804 -3.14829e+06) (-3.27354 -3.27354 -3.05951e+06) (-20.2801 -20.2801 -2.82706e+06) (2.76049 2.76048 -2.4547e+06) (-18.1587 -18.1587 -1.97436e+06) (-102.114 -102.114 -1.86793e+06) (45.6774 45.6774 -1.1054e+06) (26.9914 26.9914 -489861) (9.07484 9.07484 -944811) (-17.532 -17.532 -2.13277e+06) (-28.7209 -28.7209 -3.35164e+06)
1750          (-19.0276 -19.0276 -3.10352e+06) (-17.2644 -17.2644 -3.01868e+06) (0.904012 0.904012 -2.79657e+06) (-16.896 -16.896 -2.44016e+06) (6.58229 6.58229 -1.97839e+06) (-134.985 -134.985 -1.89341e+06) (15.4914 15.4914 -1.16411e+06) (14.2971 14.2971 -524115) (20.2668 20.2668 -964375) (17.3206 17.3206 -2.12573e+06) (-10.6266 -10.6266 -3.30419e+06)
1800          (-6.70289 -6.70289 -3.06067e+06) (-2.70289 -2.70289 -2.9795e+06) (-17.325 -17.325 -2.767e+06) (3.24057 3.24057 -2.42553e+06) (-17.1975 -17.1975 -1.98123e+06) (-76.1424 -76.1424 -1.91678e+06) (39.4504 39.4504 -1.22188e+06) (22.6701 22.6701 -558913) (3.43407 3.43407 -983473) (-22.3041 -22.3041 -2.11848e+06) (-25.3428 -25.3428 -3.25871e+06)
1850          (-16.5712 -16.5712 -3.01961e+06) (-13.6045 -13.6045 -2.94185e+06) (0.611976 0.611976 -2.73832e+06) (-14.9373 -14.9373 -2.4108e+06) (8.45457 8.45457 -1.98307e+06) (-113.228 -113.228 -1.93814e+06) (8.76276 8.76276 -1.27858e+06) (11.9372 11.9372 -594165) (19.2975 19.2975 -1.00217e+06) (21.3164 21.3164 -2.1111e+06) (-3.73502 -3.73502 -3.21508e+06)
1900          (-7.76095 -7.76095 -2.98022e+06) (-3.39546 -3.39546 -2.90565e+06) (-7.09071 -7.09072 -2.71049e+06) (3.59196 3.59196 -2.39607e+06) (-13.6965 -13.6965 -1.98396e+06) (-52.8711 -52.8711 -1.95752e+06) (12.5001 12.5001 -1.33418e+06) (7.79519 7.79519 -629811) (-3.29296 -3.29296 -1.0205e+06) (-18.71 -18.71 -2.1036e+06) (-20.8359 -20.8359 -3.17315e+06)
1950          (-3.48971 -3.48971 -2.9424e+06) (1.25749 1.25749 -2.87081e+06) (1.49476 1.49476 -2.68349e+06) (-4.44844 -4.44844 -2.38134e+06) (3.71089 3.71089 -1.98405e+06) (-41.2479 -41.2479 -1.97526e+06) (2.92643 2.92643 -1.38857e+06) (-1.70393 -1.70393 -665760) (2.32099 2.32099 -1.03852e+06) (10.0353 10.0353 -2.09606e+06) (-1.51843 -1.51843 -3.13286e+06)
2000          (-0.857033 -0.857033 -2.90605e+06) (-0.703583 -0.703583 -2.83725e+06) (1.11976 1.11976 -2.65728e+06) (5.88195 5.88195 -2.36668e+06) (-9.05142 -9.05142 -1.98341e+06) (-15.4869 -15.4869 -1.99159e+06) (-0.704879 -0.704879 -1.44171e+06) (-3.21788 -3.21788 -701955) (-0.199286 -0.199286 -1.05626e+06) (-8.07831 -8.07831 -2.08847e+06) (-8.21088 -8.21088 -3.09408e+06)
2050          (9.71179 9.71179 -2.87107e+06) (20.0296 20.0296 -2.80491e+06) (7.9989 7.9989 -2.63183e+06) (-9.07371 -9.07371 -2.35209e+06) (14.0095 14.0095 -1.98214e+06) (102.428 102.428 -2.00718e+06) (4.14088 4.14088 -1.49358e+06) (-24.6817 -24.6817 -738323) (-15.1795 -15.1795 -1.07376e+06) (27.0477 27.0477 -2.08091e+06) (28.0058 28.0058 -3.05673e+06)
2100          (0.297099 0.297099 -2.83738e+06) (21.6691 21.6691 -2.77371e+06) (-7.78594 -7.78594 -2.6071e+06) (-13.2892 -13.2892 -2.33761e+06) (9.54331 9.54331 -1.98029e+06) (24.5498 24.5498 -2.02067e+06) (25.4332 25.4332 -1.54413e+06) (-8.02991 -8.02991 -774814) (-27.0429 -27.0429 -1.09104e+06) (26.2738 26.2738 -2.07337e+06) (23.8417 23.8417 -3.02072e+06)
2150          (0.106477 0.106477 -2.80492e+06) (-3.81083 -3.81083 -2.74355e+06) (3.65352 3.65352 -2.58307e+06) (5.32188 5.32188 -2.32327e+06) (-5.00994 -5.00994 -1.97797e+06) (-9.05485 -9.05485 -2.0324e+06) (-5.50319 -5.50319 -1.5933e+06) (-7.03502 -7.03502 -811333) (2.98294 2.98294 -1.10814e+06) (-1.67292 -1.67292 -2.0659e+06) (-5.84967 -5.84967 -2.986e+06)
2200          (1.64799 1.64799 -2.77361e+06) (26.3049 26.3049 -2.71445e+06) (-9.88402 -9.88402 -2.55971e+06) (-16.2593 -16.2593 -2.30906e+06) (27.1564 27.1564 -1.9752e+06) (42.4486 42.4486 -2.04416e+06) (27.9179 27.9179 -1.64119e+06) (0.251011 0.251011 -847875) (-30.9068 -30.9068 -1.12509e+06) (15.3869 15.3869 -2.05851e+06) (20.2439 20.2439 -2.95247e+06)
2250          (1.03569 1.03569 -2.7434e+06) (24 24 -2.68631e+06) (-9.65886 -9.65886 -2.53701e+06) (-13.5538 -13.5538 -2.29502e+06) (21.6261 21.6261 -1.97202e+06) (33.2809 33.2809 -2.05434e+06) (29.7956 29.7956 -1.68772e+06) (4.17576 4.17576 -884351) (-32.9405 -32.9405 -1.14189e+06) (15.3016 15.3016 -2.05122e+06) (21.0601 21.0601 -2.92009e+06)
2300          (1.01448 1.01448 -2.71421e+06) (22.2597 22.2597 -2.65908e+06) (-10.0165 -10.0165 -2.51493e+06) (-10.5357 -10.5357 -2.28115e+06) (18.9972 18.9972 -1.96851e+06) (31.5857 31.5857 -2.06354e+06) (30.1922 30.1922 -1.73289e+06) (7.98064 7.98064 -920713) (-33.8544 -33.8544 -1.15858e+06) (14.5482 14.5482 -2.04405e+06) (21.1416 21.1416 -2.88879e+06)
2350          (1.06659 1.06659 -2.686e+06) (21.1066 21.1066 -2.63272e+06) (-10.8137 -10.8137 -2.49345e+06) (-7.59147 -7.59147 -2.26746e+06) (16.2894 16.2894 -1.9647e+06) (31.1758 31.1758 -2.07184e+06) (31.0347 31.0347 -1.77672e+06) (12.0853 12.0853 -956915) (-33.1846 -33.1846 -1.17516e+06) (13.2307 13.2307 -2.03703e+06) (20.548 20.548 -2.85852e+06)
2400          (1.2296 1.2296 -2.6587e+06) (20.5279 20.5279 -2.60719e+06) (-12.0639 -12.0639 -2.47255e+06) (-4.2887 -4.2887 -2.25396e+06) (12.935 12.935 -1.96063e+06) (32.2047 32.2047 -2.07934e+06) (32.4715 32.4715 -1.81921e+06) (17.0774 17.0774 -992914) (-30.4356 -30.4356 -1.19164e+06) (11.2962 11.2962 -2.03016e+06) (19.1798 19.1798 -2.82923e+06)
2450          (1.54055 1.54055 -2.63229e+06) (20.1566 20.1566 -2.58245e+06) (-13.6361 -13.6361 -2.4522e+06) (-0.274669 -0.274669 -2.24065e+06) (8.3988 8.3988 -1.95633e+06) (35.1132 35.1132 -2.08609e+06) (33.8887 33.8887 -1.86041e+06) (22.9702 22.9702 -1.02867e+06) (-24.5797 -24.5797 -1.20804e+06) (8.71735 8.71735 -2.02345e+06) (16.8411 16.8411 -2.80088e+06)
2500          (1.94918 1.94918 -2.60671e+06) (19.2553 19.2553 -2.55846e+06) (-14.8877 -14.8877 -2.43238e+06) (4.11154 4.11154 -2.22755e+06) (2.82045 2.82045 -1.95183e+06) (39.7147 39.7147 -2.09214e+06) (33.7241 33.7241 -1.90031e+06) (28.2845 28.2845 -1.06415e+06) (-15.2466 -15.2466 -1.22437e+06) (5.86051 5.86051 -2.01692e+06) (13.6093 13.6093 -2.77343e+06)
2550          (2.30619 2.30619 -2.58193e+06) (17.5191 17.5191 -2.53518e+06) (-15.1387 -15.1387 -2.41309e+06) (7.67265 7.67265 -2.21464e+06) (-2.37175 -2.37175 -1.94716e+06) (44.3558 44.3558 -2.09756e+06) (31.1399 31.1399 -1.93896e+06) (30.9771 30.9771 -1.09931e+06) (-4.74883 -4.74883 -1.24063e+06) (3.67144 3.67144 -2.01058e+06) (10.3658 10.3658 -2.74683e+06)
2600          (2.53539 2.53539 -2.5579e+06) (15.6176 15.6176 -2.5126e+06) (-14.6086 -14.6086 -2.39429e+06) (9.73824 9.73824 -2.20194e+06) (-5.9214 -5.9214 -1.94235e+06) (47.4519 47.4519 -2.10239e+06) (27.4811 27.4811 -1.97637e+06) (31.1026 31.1026 -1.13413e+06) (3.77862 3.77862 -1.25683e+06) (2.79388 2.79388 -2.00443e+06) (8.09014 8.09014 -2.72105e+06)
2650          (2.67225 2.67225 -2.53459e+06) (14.1631 14.1631 -2.49066e+06) (-13.8933 -13.8933 -2.37597e+06) (10.6585 10.6585 -2.18944e+06) (-7.8871 -7.8871 -1.93742e+06) (48.8901 48.8901 -2.10667e+06) (24.2374 24.2374 -2.01257e+06) (30.0705 30.0705 -1.16858e+06) (9.49413 9.49413 -1.27297e+06) (3.04999 3.04999 -1.99848e+06) (6.92997 6.92997 -2.69606e+06)
2700          (2.76059 2.76059 -2.51198e+06) (13.2342 13.2342 -2.46936e+06) (-13.284 -13.284 -2.35812e+06) (10.9616 10.9616 -2.17715e+06) (-8.83874 -8.83874 -1.93238e+06) (49.2143 49.2143 -2.11044e+06) (21.8248 21.8248 -2.04758e+06) (28.8111 28.8111 -1.20264e+06) (13.0677 13.0677 -1.28905e+06) (3.981 3.981 -1.99273e+06) (6.55253 6.55253 -2.67183e+06)
2750          (2.8203 2.8203 -2.49002e+06) (12.6823 12.6823 -2.44865e+06) (-12.8227 -12.8227 -2.34071e+06) (10.9713 10.9713 -2.16507e+06) (-9.22784 -9.22784 -1.92726e+06) (48.8965 48.8965 -2.11375e+06) (20.1051 20.1051 -2.08145e+06) (27.644 27.644 -1.23628e+06) (15.2945 15.2945 -1.30508e+06) (5.22759 5.22759 -1.9872e+06) (6.61986 6.61986 -2.64832e+06)
2800          (2.85797 2.85797 -2.46869e+06) (12.3519 12.3519 -2.42853e+06) (-12.472 -12.472 -2.32374e+06) (10.846 10.846 -2.15319e+06) (-9.3178 -9.3178 -1.92207e+06) (48.2251 48.2251 -2.11663e+06) (18.8514 18.8514 -2.11419e+06) (26.6253 26.6253 -1.26948e+06) (16.7181 16.7181 -1.32106e+06) (6.57164 6.57164 -1.98188e+06) (6.90657 6.90657 -2.62551e+06)
2850          (2.87615 2.87615 -2.44797e+06) (12.1342 12.1342 -2.40895e+06) (-12.1885 -12.1885 -2.30718e+06) (10.6587 10.6587 -2.14152e+06) (-9.25049 -9.25049 -1.91681e+06) (47.3622 47.3622 -2.11911e+06) (17.8875 17.8875 -2.14584e+06) (25.7377 25.7377 -1.30224e+06) (17.6638 17.6638 -1.33698e+06) (7.8928 7.8928 -1.97678e+06) (7.28073 7.28073 -2.60337e+06)
2900          (2.87677 2.87677 -2.42783e+06) (11.964 11.964 -2.38991e+06) (-11.9403 -11.9403 -2.29103e+06) (10.4427 10.4427 -2.13005e+06) (-9.10103 -9.10103 -1.91152e+06) (46.3977 46.3977 -2.12121e+06) (17.1003 17.1003 -2.17642e+06) (24.9537 24.9537 -1.33453e+06) (18.3191 18.3191 -1.35285e+06) (9.12952 9.12952 -1.9719e+06) (7.66995 7.66995 -2.58189e+06)
2950          (2.86194 2.86194 -2.40824e+06) (11.805 11.805 -2.37138e+06) (-11.7072 -11.7072 -2.27527e+06) (10.2133 10.2133 -2.11879e+06) (-8.90905 -8.90905 -1.90619e+06) (45.3818 45.3818 -2.12298e+06) (16.4219 16.4219 -2.20597e+06) (24.2509 24.2509 -1.36634e+06) (18.7916 18.7916 -1.36866e+06) (10.2542 10.2542 -1.96724e+06) (8.03698 8.03698 -2.56103e+06)
3000          (5.21354 5.21354 -2.3892e+06) (-3.6264 -3.6264 -2.35334e+06) (5.05723 5.05723 -2.25991e+06) (-4.9146 -4.9146 -2.10772e+06) (10.0972 10.0972 -1.90084e+06) (80.6102 80.6102 -2.12449e+06) (-6.99935 -6.99935 -2.23454e+06) (-12.0952 -12.0952 -1.39765e+06) (-10.6313 -10.6313 -1.38441e+06) (-10.3871 -10.3871 -1.9628e+06) (6.91431 6.91431 -2.54078e+06)
3050          (-3.04242 -3.04242 -2.37067e+06) (-1.60048 -1.60048 -2.33579e+06) (-3.48438 -3.48438 -2.2449e+06) (-12.3212 -12.3212 -2.09685e+06) (-35.3664 -35.3664 -1.89544e+06) (-10.5528 -10.5528 -2.12553e+06) (25.1741 25.1741 -2.26215e+06) (-4.62418 -4.62418 -1.4285e+06) (-1.0901 -1.0901 -1.40012e+06) (0.2846 0.2846 -1.95858e+06) (10.0341 10.0341 -2.52111e+06)
3100          (7.62165 7.62165 -2.35265e+06) (1.27641 1.27641 -2.31869e+06) (6.63483 6.63483 -2.23027e+06) (13.2597 13.2597 -2.08621e+06) (14.3881 14.3881 -1.8901e+06) (107.446 107.446 -2.12651e+06) (-29.3425 -29.3425 -2.28875e+06) (5.41802 5.41802 -1.45884e+06) (-8.82453 -8.82453 -1.41576e+06) (3.10729 3.10729 -1.95459e+06) (13.5533 13.5533 -2.50201e+06)
3150          (-0.413964 -0.413964 -2.33508e+06) (-4.98404 -4.98404 -2.30202e+06) (-7.44793 -7.44793 -2.21595e+06) (-13.7393 -13.7393 -2.07571e+06) (-30.2823 -30.2823 -1.88469e+06) (-1.6809 -1.6809 -2.127e+06) (31.1993 31.1993 -2.3145e+06) (-20.8601 -20.8601 -1.48865e+06) (10.4296 10.4296 -1.43134e+06) (-6.21554 -6.21554 -1.95081e+06) (10.5492 10.5492 -2.48346e+06)
3200          (5.1716 5.1716 -2.31798e+06) (2.99315 2.99315 -2.28579e+06) (7.04339 7.04339 -2.20199e+06) (11.6688 11.6688 -2.06545e+06) (10.9171 10.9171 -1.87936e+06) (99.1443 99.1443 -2.12748e+06) (-29.1582 -29.1582 -2.33929e+06) (11.5936 11.5936 -1.51797e+06) (-15.4434 -15.4434 -1.44683e+06) (7.12244 7.12244 -1.94727e+06) (12.2732 12.2732 -2.46545e+06)
3250          (1.96618 1.96618 -2.30131e+06) (-6.5494 -6.5494 -2.26995e+06) (-7.19326 -7.19326 -2.18833e+06) (-11.4558 -11.4558 -2.05533e+06) (-26.5748 -26.5748 -1.87397e+06) (-1.28825 -1.28825 -2.12754e+06) (30.8143 30.8143 -2.36328e+06) (-24.0479 -24.0479 -1.54674e+06) (16.0458 16.0458 -1.46228e+06) (-10.0425 -10.0425 -1.94393e+06) (10.0689 10.0689 -2.44795e+06)
3300          (3.48504 3.48504 -2.28507e+06) (3.63821 3.63821 -2.25451e+06) (6.46599 6.46599 -2.17501e+06) (9.9817 9.9817 -2.04544e+06) (8.78862 8.78862 -1.86867e+06) (92.7537 92.7537 -2.1276e+06) (-27.2677 -27.2677 -2.38639e+06) (12.6025 12.6025 -1.57502e+06) (-17.2181 -17.2181 -1.47762e+06) (8.77912 8.77912 -1.94083e+06) (11.0968 11.0968 -2.43096e+06)
3350          (3.08519 3.08519 -2.26923e+06) (-7.07868 -7.07868 -2.23944e+06) (-6.7081 -6.7081 -2.16196e+06) (-9.97624 -9.97624 -2.03569e+06) (-24.2405 -24.2405 -1.86333e+06) (-1.14705 -1.14705 -2.12728e+06) (29.2903 29.2903 -2.40875e+06) (-23.8563 -23.8563 -1.60273e+06) (17.4987 17.4987 -1.49291e+06) (-11.5493 -11.5493 -1.93793e+06) (9.68363 9.68363 -2.41447e+06)
3400          (2.6472 2.6472 -2.25379e+06) (3.86063 3.86063 -2.22475e+06) (6.08702 6.08702 -2.14923e+06) (9.02661 9.02661 -2.02616e+06) (7.63434 7.63434 -1.85808e+06) (87.5757 87.5757 -2.12698e+06) (-25.4314 -25.4314 -2.43028e+06) (12.3874 12.3874 -1.62996e+06) (-17.3299 -17.3299 -1.50808e+06) (9.32244 9.32244 -1.93526e+06) (10.0625 10.0625 -2.39844e+06)
3450          (7.82423 7.82423 -2.23875e+06) (-2.21676 -2.21676 -2.21042e+06) (-3.22784 -3.22784 -2.13678e+06) (-7.02089 -7.02089 -2.01677e+06) (-13.7827 -13.7827 -1.85281e+06) (24.3613 24.3613 -2.12664e+06) (23.8765 23.8765 -2.45115e+06) (-31.1509 -31.1509 -1.65666e+06) (13.392 13.392 -1.52321e+06) (-12.9997 -12.9997 -1.93277e+06) (15.9677 15.9677 -2.38289e+06)
3500          (6.25748 6.25748 -2.22407e+06) (5.61965 5.61965 -2.19644e+06) (5.07772 5.07772 -2.12462e+06) (1.76588 1.76588 -2.00757e+06) (-8.93336 -8.93336 -1.84759e+06) (30.1356 30.1356 -2.12592e+06) (24.0218 24.0218 -2.47124e+06) (-27.7728 -27.7728 -1.68285e+06) (10.1667 10.1667 -1.53823e+06) (-12.8729 -12.8729 -1.93051e+06) (16.7902 16.7902 -2.36778e+06)
3550          (3.04718 3.04718 -2.20974e+06) (10.1327 10.1327 -2.18278e+06) (11.0204 11.0204 -2.11273e+06) (12.4902 12.4902 -1.99855e+06) (-3.04358 -3.04358 -1.84241e+06) (25.441 25.441 -2.12506e+06) (20.2178 20.2178 -2.49062e+06) (-16.4039 -16.4039 -1.70852e+06) (0.452395 0.452395 -1.55314e+06) (-9.80551 -9.80551 -1.92845e+06) (16.0922 16.0922 -2.35312e+06)
3600          (1.89617 1.89617 -2.19575e+06) (6.40194 6.40194 -2.16945e+06) (9.5529 9.5529 -2.10109e+06) (20.8771 20.8771 -1.98968e+06) (4.02795 4.02795 -1.83727e+06) (1.70971 1.70971 -2.12409e+06) (13.2663 13.2663 -2.50933e+06) (1.16661 1.16661 -1.73368e+06) (-9.3677 -9.3677 -1.56795e+06) (-8.68289 -8.68289 -1.9266e+06) (11.6936 11.6936 -2.33889e+06)
3650          (-2.7991 -2.7991 -2.1821e+06) (-3.13243 -3.13243 -2.15641e+06) (1.413 1.413 -2.0897e+06) (28.1787 28.1787 -1.98098e+06) (8.97855 8.97855 -1.83218e+06) (-124.85 -124.85 -2.12246e+06) (17.43 17.43 -2.5274e+06) (31.2144 31.2144 -1.75835e+06) (-4.43618 -4.43618 -1.58268e+06) (-14.2762 -14.2762 -1.92494e+06) (-7.788 -7.788 -2.32505e+06)
3700          (-0.280093 -0.280093 -2.16876e+06) (2.66359 2.66359 -2.14369e+06) (3.60169 3.60169 -2.07856e+06) (-10.7658 -10.7658 -1.9724e+06) (-5.60096 -5.60096 -1.82709e+06) (47.2545 47.2545 -2.12134e+06) (-2.28578 -2.28578 -2.54479e+06) (-9.68486 -9.68486 -1.78243e+06) (2.89723 2.89723 -1.59727e+06) (6.28989 6.28989 -1.92348e+06) (1.48378 1.48378 -2.31167e+06)
3750          (1.13582 1.13582 -2.15575e+06) (2.60011 2.60011 -2.13126e+06) (16.1815 16.1815 -2.06767e+06) (-20.8593 -20.8593 -1.964e+06) (-17.025 -17.025 -1.82211e+06) (40.4146 40.4146 -2.12039e+06) (13.7044 13.7044 -2.56154e+06) (-10.8195 -10.8195 -1.80607e+06) (5.40379 5.40379 -1.61179e+06) (10.1027 10.1027 -1.92222e+06) (-2.47527 -2.47527 -2.29867e+06)
3800          (-1.42398 -1.42397 -2.14303e+06) (2.56229 2.56229 -2.11911e+06) (-37.4677 -37.4677 -2.05697e+06) (33.2823 33.2823 -1.9558e+06) (23.3469 23.3469 -1.8172e+06) (-54.5162 -54.5162 -2.11898e+06) (-5.6345 -5.6345 -2.57771e+06) (21.9226 21.9226 -1.82923e+06) (3.3824 3.3824 -1.62617e+06) (-10.411 -10.411 -1.92112e+06) (9.10699 9.10699 -2.28607e+06)
3850          (11.6514 11.6514 -2.1306e+06) (-6.77899 -6.77899 -2.10721e+06) (38.2752 38.2752 -2.04658e+06) (-18.4509 -18.4509 -1.94767e+06) (-16.0162 -16.0162 -1.8122e+06) (123.157 123.157 -2.11755e+06) (12.4549 12.4549 -2.59345e+06) (-21.2824 -21.2824 -1.85186e+06) (-17.9864 -17.9864 -1.64044e+06) (-0.990261 -0.990261 -1.92023e+06) (8.94312 8.94312 -2.27384e+06)
3900          (0.203305 0.203304 -2.11844e+06) (7.3233 7.3233 -2.09561e+06) (-16.9446 -16.9446 -2.03632e+06) (11.0069 11.0069 -1.93974e+06) (10.6767 10.6767 -1.80735e+06) (24.149 24.149 -2.11603e+06) (-16.401 -16.401 -2.60856e+06) (-6.67391 -6.67391 -1.874e+06) (-1.56869 -1.56869 -1.65459e+06) (1.72784 1.72784 -1.91951e+06) (9.41075 9.41075 -2.26201e+06)
3950          (4.17844 4.17844 -2.10656e+06) (-4.82306 -4.82306 -2.08424e+06) (12.1327 12.1327 -2.02633e+06) (-6.95701 -6.95701 -1.93193e+06) (-6.0913 -6.0913 -1.80253e+06) (36.6385 36.6385 -2.1141e+06) (11.2969 11.2969 -2.62309e+06) (1.10009 1.10009 -1.89566e+06) (-2.43189 -2.43189 -1.6686e+06) (-1.96175 -1.96175 -1.91897e+06) (4.0954 4.0954 -2.25053e+06)
4000          (-10.9457 -10.9457 -2.09496e+06) (15.3779 15.3779 -2.07315e+06) (-50.0213 -50.0213 -2.0165e+06) (22.2157 22.2157 -1.92429e+06) (15.9902 15.9902 -1.79779e+06) (-56.4122 -56.4122 -2.1124e+06) (-36.4735 -36.4735 -2.6372e+06) (1.8745 1.8745 -1.9169e+06) (15.3516 15.3516 -1.68252e+06) (9.19549 9.19549 -1.9186e+06) (3.04571 3.04571 -2.23941e+06)
4050          (5.71775 5.71775 -2.0836e+06) (-2.42448 -2.42448 -2.06227e+06) (26.8929 26.8929 -2.00695e+06) (-5.4399 -5.4399 -1.91674e+06) (-4.84282 -4.84282 -1.79306e+06) (39.199 39.199 -2.11093e+06) (10.1962 10.1962 -2.65072e+06) (-10.0751 -10.0751 -1.93764e+06) (-13.6338 -13.6338 -1.6963e+06) (-4.6861 -4.6861 -1.9184e+06) (-4.35104 -4.35104 -2.22863e+06)
4100          (2.80734 2.80734 -2.07249e+06) (-0.581409 -0.581409 -2.05163e+06) (10.0621 10.0621 -1.99753e+06) (-2.0312 -2.0312 -1.90936e+06) (-1.70914 -1.70914 -1.78838e+06) (42.663 42.663 -2.10879e+06) (2.34748 2.34748 -2.6638e+06) (-7.1941 -7.1941 -1.9579e+06) (-7.74778 -7.74778 -1.70993e+06) (-1.97894 -1.97894 -1.91836e+06) (-0.151652 -0.151652 -2.21821e+06)
4150          (-0.173474 -0.173474 -2.06164e+06) (5.87198 5.87198 -2.04124e+06) (-11.5114 -11.5114 -1.98832e+06) (8.3138 8.3138 -1.90211e+06) (4.96527 4.96527 -1.78379e+06) (28.654 28.654 -2.10735e+06) (-13.2503 -13.2503 -2.67641e+06) (-12.1388 -12.1388 -1.97774e+06) (-5.88528 -5.88528 -1.72345e+06) (1.70235 1.70235 -1.91848e+06) (6.48761 6.48761 -2.20813e+06)