# Probe 0 (0.0015 0.0015 0)
# Probe 1 (0.0015 0.0015 0.01)
# Probe 2 (0.0015 0.0015 0.02)
# Probe 3 (0.0015 0.0015 0.03)
# Probe 4 (0.0015 0.0015 0.04)
# Probe 5 (0.0015 0.0015 0.05)
# Probe 6 (0.0015 0.0015 0.06)
# Probe 7 (0.0015 0.0015 0.07)
# Probe 8 (0.0015 0.0015 0.08)
# Probe 9 (0.0015 0.0015 0.09)
# Probe 10 (0.0015 0.0015 0.1)
# Time        0             1             2             3             4             5             6             7             8             9             10           
50            (-0.0207369 -0.0207369 18661.5) (-0.0110414 -0.0110414 4179.07) (-0.00175747 -0.00175747 345.378) (-0.00030546 -0.00030546 21.0366) (-1.43228e-05 -1.43228e-05 -3.5019) (-2.35881e-05 -2.35881e-05 -22.6507) (-1.30784e-06 -1.30784e-06 -0.292525) (-2.30251e-06 -2.30251e-06 -0.000498924) (-3.47698e-06 -3.47697e-06 0.0978255) (0.000273253 0.000273253 49.6743) (-0.0274034 -0.0274034 7281.78)
100           (-0.0620706 -0.0620706 13485.4) (0.0154239 0.0154239 6349.17) (0.00763952 0.00763952 1030.83) (0.000715849 0.000715849 106.076) (3.31449e-05 3.3145e-05 2.35843) (0.000254443 0.000254443 -14.5848) (-3.18186e-05 -3.18186e-05 -0.797271) (-3.98383e-07 -3.98383e-07 -0.00250434) (4.6933e-05 4.69331e-05 0.777775) (0.00708065 0.00708065 147.095) (-0.0420823 -0.0420823 5889.87)
150           (0.0384998 0.0384998 11061.5) (-0.00141969 -0.00141969 6998.84) (-0.00748814 -0.00748814 1833.13) (-0.00195262 -0.00195262 275.989) (-0.000320649 -0.000320649 24.7253) (-0.000167937 -0.000167937 -9.31528) (2.55013e-05 2.55013e-05 -1.3534) (-3.49486e-07 -3.49479e-07 -0.00208571) (-0.000167682 -0.000167682 2.86053) (-0.00673612 -0.00673612 268.12) (0.0338847 0.0338847 5053.18)
200           (0.000837472 0.000837472 9598.85) (-0.00242474 -0.00242474 6976.44) (0.000931469 0.000931469 2545.19) (-0.0023179 -0.0023179 519.475) (-0.000579542 -0.000579542 70.5668) (-0.000163261 -0.000163261 -1.87567) (3.86981e-06 3.86982e-06 -1.82756) (0.000252007 0.000252007 0.0175649) (0.00236702 0.00236702 7.17845) (0.000420705 0.000420705 391.111) (-0.025201 -0.025201 4486.06)
250           (-0.0437524 -0.0437524 8595.19) (-0.0168984 -0.0168984 6742.65) (0.0150462 0.0150462 3081.42) (0.00996826 0.00996826 806.729) (0.00245902 0.00245902 143.014) (0.00100453 0.00100453 10.6971) (-8.79819e-06 -8.79819e-06 -2.1104) (3.89731e-05 3.89731e-05 0.0930436) (0.000909467 0.000909467 14.3095) (0.00893832 0.00893832 504.457) (0.0167686 0.0167686 4071.27)
300           (0.066876 0.066876 7851.95) (0.0186502 0.0186502 6459.57) (-0.00391695 -0.00391695 3446) (-0.00565342 -0.00565342 1105.44) (-0.00234585 -0.00234585 240.728) (0.00386218 0.00386218 30.5239) (9.23922e-05 9.23922e-05 -2.07531) (-3.02549e-05 -3.02549e-05 0.281646) (-0.00128747 -0.00128747 24.4556) (-0.0119319 -0.0119319 603.607) (0.0254127 0.0254127 3751.87)
350           (-0.00789633 -0.00789633 7272.95) (-0.0112923 -0.0112923 6179.53) (0.00274842 0.00274842 3677.03) (0.00621695 0.00621695 1390.52) (0.00338808 0.00338808 358.953) (0.00380629 0.00380629 58.7338) (5.03976e-05 5.03976e-05 -1.55013) (3.1229e-05 3.1229e-05 0.660466) (0.00075805 0.00075805 37.5023) (0.00393261 0.00393261 687.877) (0.0137626 0.0137626 3496.63)
400           (-0.00724871 -0.00724871 6805.63) (-0.0105056 -0.0105056 5918.58) (0.000482518 0.000482518 3813.35) (0.00589627 0.00589627 1646.79) (0.00359415 0.00359415 491.427) (0.00293985 0.00293985 95.9634) (0.000103235 0.000103235 -0.319175) (5.5791e-05 5.5791e-05 1.31287) (0.00103431 0.00103431 53.0453) (0.00414921 0.00414921 758.459) (0.00896323 0.00896323 3286.95)
450           (-0.00624613 -0.00624613 6418.14) (-0.00845261 -0.00845261 5680.33) (-0.00070624 -0.00070624 3885.53) (0.00463634 0.00463634 1867.75) (0.00333722 0.00333722 631.425) (0.00224975 0.00224975 141.742) (0.000160934 0.000160934 1.87442) (7.72868e-05 7.72868e-05 2.32628) (0.00106583 0.00106583 70.5947) (0.00322135 0.00322135 817.06) (0.00667725 0.00667725 3110.76)
500           (-0.00448936 -0.00448936 6090.06) (-0.00625724 -0.00625724 5464.17) (-0.00117433 -0.00117433 3914.87) (0.00320087 0.00320087 2052.83) (0.00277728 0.00277728 772.972) (0.00274677 0.00274677 195.037) (0.000204253 0.000204253 5.30126) (8.82039e-05 8.8204e-05 3.78428) (0.000894783 0.000894783 89.6272) (0.00200864 0.00200864 865.477) (0.00592003 0.00592003 2960.06)
550           (-0.00372901 -0.00372901 5807.61) (-0.00491703 -0.00491703 5268.14) (-0.00135801 -0.00135801 3915.72) (0.0022521 0.0022521 2204.71) (0.00242028 0.00242028 911.334) (0.00381915 0.00381915 254.418) (0.000250652 0.000250652 10.221) (0.000100098 0.000100098 5.76189) (0.000756129 0.000756129 109.647) (0.00124351 0.00124351 905.356) (0.00508265 0.00508265 2829.26)
600           (-0.000524361 -0.000524361 5561.09) (-0.00362979 -0.00362979 5089.98) (-0.00193311 -0.00193311 3897.67) (0.000842801 0.000842801 2327.49) (0.00205311 0.00205311 1043.13) (0.00780321 0.00780321 318.278) (0.000221302 0.000221302 16.862) (8.27967e-05 8.27967e-05 8.32333) (0.000427317 0.000427317 130.217) (0.000451508 0.000451508 938.126) (0.00599801 0.00599801 2714.33)
650           (0.0014932 0.0014932 5343.5) (-0.00272248 -0.00272248 4927.52) (-0.00210713 -0.00210713 3867.14) (2.16526e-05 2.16527e-05 2425.51) (0.00171688 0.00171688 1166.2) (0.011425 0.011425 385.018) (0.00013021 0.00013021 25.4068) (4.52375e-05 4.52375e-05 11.5216) (7.38127e-05 7.38127e-05 150.977) (-0.00011574 -0.00011574 964.984) (0.00701705 0.00701705 2612.33)
700           (0.00360373 0.00360373 5149.58) (-0.00179094 -0.00179094 4778.84) (-0.00207537 -0.00207537 3828.49) (-0.000603718 -0.000603718 2502.86) (0.00134792 0.00134792 1279.38) (0.0160547 0.0160547 453.167) (-8.34772e-05 -8.34772e-05 35.9827) (-3.60074e-05 -3.60074e-05 15.399) (-0.000395828 -0.000395828 171.637) (-0.000641358 -0.000641358 986.926) (0.00846207 0.00846207 2521)
750           (0.00609691 0.00609691 4975.34) (-0.000627278 -0.000627278 4642.24) (-0.00174115 -0.00174115 3784.67) (-0.00103576 -0.00103576 2563.14) (0.000910248 0.000910248 1382.25) (0.0225035 0.0225035 521.449) (-0.000492299 -0.000492299 48.6587) (-0.000190239 -0.000190239 19.988) (-0.00103916 -0.00103916 191.979) (-0.00118658 -0.00118658 1004.77) (0.0103584 0.0103584 2438.6)
800           (0.00901327 0.00901327 4817.66) (0.000830221 0.000830221 4516.29) (-0.00105929 -0.00105929 3737.74) (-0.00123051 -0.00123051 2609.4) (0.00043352 0.00043352 1474.9) (0.0313672 0.0313672 588.808) (-0.00115617 -0.00115617 63.4465) (-0.000447283 -0.000447283 25.3124) (-0.00187085 -0.00187085 211.838) (-0.00174386 -0.00174386 1019.19) (0.0125677 0.0125677 2363.77)
850           (0.0121304 0.0121304 4674.09) (0.00250404 0.00250404 4399.75) (-7.52044e-05 -7.52044e-05 3689.09) (-0.00115422 -0.00115422 2644.17) (-1.16595e-05 -1.16595e-05 1557.74) (0.042493 0.042493 654.411) (-0.00208362 -0.00208362 80.305) (-0.000824481 -0.000824481 31.3882) (-0.00284255 -0.00284255 231.1) (-0.00225727 -0.00225727 1030.74) (0.0147967 0.0147967 2295.42)
900           (0.0136267 0.0136267 4542.63) (0.0024952 0.0024952 4291.56) (0.00106891 0.00106891 3639.72) (-0.000833052 -0.000833052 2669.55) (-0.00395547 -0.00395547 1631.39) (0.0541593 0.0541593 717.657) (-0.00585381 -0.00585381 99.1486) (-0.000312864 -0.000312864 38.2243) (-0.00336487 -0.00336487 249.688) (-0.00248347 -0.00248347 1039.87) (0.0164384 0.0164384 2232.68)
950           (-0.0147903 -0.0147903 4421.69) (-0.00585926 -0.00585926 4190.79) (-0.00279211 -0.00279211 3590.3) (-0.00112611 -0.00112611 2687.26) (0.00523089 0.00523089 1696.56) (-0.0235209 -0.0235209 778.34) (0.000149271 0.000149271 119.858) (0.00117421 0.00117421 45.8254) (0.00168723 0.00168723 267.558) (0.000914841 0.000914841 1046.96) (0.0015218 0.0015218 2174.82)
1000          (-0.0144067 -0.0144067 4309.93) (-0.00587542 -0.00587542 4096.69) (-0.00242529 -0.00242529 3541.31) (-2.49354e-05 -2.49354e-05 2698.66) (0.00282029 0.00282029 1754.03) (-0.0249662 -0.0249662 835.701) (2.86182e-05 2.86182e-05 142.272) (0.000720929 0.000720929 54.1863) (0.00169933 0.00169933 284.693) (0.00146157 0.00146157 1052.34) (0.00194361 0.00194361 2121.23)
1050          (-0.0138547 -0.0138547 4206.27) (-0.00554778 -0.00554778 4008.56) (-0.00216436 -0.00216436 3493.06) (-5.79984e-05 -5.79983e-05 2704.91) (0.00272906 0.00272906 1804.5) (-0.0260255 -0.0260255 889.77) (-0.000365316 -0.000365316 166.226) (0.000657526 0.000657526 63.2989) (0.00161275 0.00161275 301.092) (0.00152467 0.00152467 1056.26) (0.00220905 0.00220905 2071.41)
1100          (-0.0133157 -0.0133157 4109.78) (-0.00523666 -0.00523666 3925.84) (-0.00189355 -0.00189355 3445.78) (-0.000149289 -0.000149289 2706.93) (0.00275432 0.00275432 1848.69) (-0.0266578 -0.0266578 940.495) (-0.000750954 -0.000750954 191.54) (0.000610469 0.000610469 73.1501) (0.00151936 0.00151936 316.769) (0.0015305 0.0015305 1058.94) (0.00242252 0.00242252 2024.94)
1150          (-0.0127944 -0.0127944 4019.68) (-0.00495226 -0.00495226 3848) (-0.00163371 -0.00163371 3399.62) (-0.000220682 -0.000220682 2705.48) (0.00276662 0.00276662 1887.25) (-0.0269019 -0.0269019 987.889) (-0.00110835 -0.00110835 218.029) (0.000561932 0.000561932 83.722) (0.00142807 0.00142807 331.747) (0.00151911 0.00151911 1060.57) (0.00257412 0.00257412 1981.46)
1200          (-0.012299 -0.012299 3935.31) (-0.00469188 -0.00469188 3774.61) (-0.0013947 -0.0013947 3354.65) (-0.000267393 -0.000267393 2701.19) (0.00274981 0.00274981 1920.78) (-0.0268489 -0.0268489 1032.02) (-0.00142539 -0.00142539 245.507) (0.000514098 0.000514098 94.9925) (0.00134146 0.00134146 346.059) (0.00149485 0.00149485 1061.3) (0.00266595 0.00266595 1940.67)
1250          (-0.0118338 -0.0118338 3856.08) (-0.00445258 -0.00445258 3705.26) (-0.00118099 -0.00118099 3310.93) (-0.000292162 -0.000292162 2694.56) (0.00270325 0.00270325 1949.82) (-0.0265857 -0.0265857 1073) (-0.00169528 -0.00169528 273.791) (0.000470682 0.000470682 106.936) (0.00126082 0.00126082 359.739) (0.00145884 0.00145884 1061.27) (0.00270606 0.00270606 1902.3)
1300          (0.00479851 0.00479851 3781.51) (0.0010134 0.0010134 3639.61) (-0.00170097 -0.00170097 3268.47) (0.00303631 0.00303631 2686.02) (-0.0135463 -0.0135463 1974.88) (0.0471263 0.0471263 1110.98) (0.00979263 0.00979263 302.713) (0.00285403 0.00285403 119.525) (-0.000193247 -0.000193247 372.831) (-0.00425065 -0.00425065 1060.59) (-0.00451136 -0.00451136 1866.11)
1350          (0.00286791 0.00286791 3711.16) (-0.000489438 -0.000489438 3577.35) (-0.00657429 -0.00657429 3227.29) (0.00584982 0.00584982 2675.92) (-0.0155125 -0.0155125 1996.39) (0.020135 0.020135 1146.03) (0.00829297 0.00829297 332.087) (0.00512949 0.00512949 132.721) (0.000394041 0.000394041 385.37) (-0.0040491 -0.0040491 1059.35) (-0.00562589 -0.00562589 1831.92)
1400          (0.000933283 0.000933283 3644.66) (0.000139805 0.000139805 3518.21) (-0.00893565 -0.00893565 3187.36) (0.00515794 0.00515794 2664.55) (-0.0113963 -0.0113963 2014.75) (0.00601968 0.00601968 1178.44) (0.0067471 0.0067471 361.782) (0.00426573 0.00426573 146.495) (0.000500265 0.000500265 397.402) (-0.00331309 -0.00331309 1057.64) (-0.00215092 -0.00215092 1799.54)
1450          (0.0242376 0.0242376 3581.64) (0.024775 0.024775 3461.94) (-0.0050925 -0.0050925 3148.66) (0.0269605 0.0269605 2652.16) (-0.018651 -0.018651 2030.31) (0.177492 0.177492 1208.2) (-0.00214216 -0.00214216 391.643) (0.000992248 0.000992248 160.807) (-0.00607484 -0.00607484 408.965) (-0.00758227 -0.00758227 1055.54) (0.0101831 0.0101831 1768.81)
1500          (-0.00192723 -0.00192723 3521.88) (0.00118025 0.00118025 3408.33) (-0.00864135 -0.00864135 3111.15) (0.00428201 0.00428201 2638.95) (-0.00747299 -0.00747299 2043.36) (-0.00301397 -0.00301397 1235.57) (0.00653704 0.00653704 421.542) (0.00422486 0.00422486 175.619) (0.00145152 0.00145152 420.102) (-0.00223042 -0.00223042 1053.09) (-0.00180089 -0.00180089 1739.62)
1550          (0.0227758 0.0227758 3465.04) (0.0227999 0.0227999 3357.18) (-0.00603812 -0.00603812 3074.81) (0.0193955 0.0193955 2625.08) (-0.0110533 -0.0110533 2054.23) (0.120684 0.120684 1260.99) (-0.00725694 -0.00725694 451.38) (-0.00164752 -0.00164752 190.894) (-0.00694664 -0.00694664 430.852) (-0.00580488 -0.00580488 1050.37) (0.0063898 0.0063898 1711.82)
1600          (0.00943807 0.00943807 3410.95) (-0.000223199 -0.000223199 3308.32) (0.0224949 0.0224949 3039.59) (-0.0073798 -0.0073798 2610.72) (0.0187509 0.0187509 2063.1) (0.0800883 0.0800883 1284.19) (-0.0189491 -0.0189491 481.045) (-0.0121284 -0.0121284 206.592) (-0.00414132 -0.00414132 441.25) (0.00707098 0.00707098 1047.4) (0.0115109 0.0115109 1685.32)
1650          (0.0205991 0.0205991 3359.38) (0.0213436 0.0213436 3261.56) (-0.000341392 -0.000341392 3005.48) (0.02036 0.02036 2595.93) (-0.00701825 -0.00701825 2070.27) (0.152074 0.152074 1305.45) (-0.00986796 -0.00986796 510.442) (-0.00683429 -0.00683429 222.666) (-0.00967261 -0.00967261 451.333) (-0.00677135 -0.00677135 1044.25) (0.00818891 0.00818891 1660.02)
1700          (0.010102 0.010102 3310.14) (0.00344182 0.00344182 3216.8) (0.0213227 0.0213227 2972.39) (-0.0029024 -0.0029024 2580.89) (0.0190922 0.0190922 2075.86) (0.107363 0.107363 1325) (-0.0222936 -0.0222936 539.509) (-0.0131736 -0.0131736 239.086) (-0.00442913 -0.00442913 461.132) (0.00855681 0.00855681 1040.93) (0.0140177 0.0140177 1635.83)
1750          (0.0200058 0.0200058 3263.07) (0.018152 0.018152 3173.86) (-0.000950486 -0.000950486 2940.34) (0.0177646 0.0177646 2565.61) (-0.00692067 -0.00692067 2080.1) (0.141925 0.141925 1342.9) (-0.00756085 -0.00756085 568.162) (-0.00697796 -0.00697796 255.804) (-0.00989158 -0.00989158 470.681) (-0.00845362 -0.00845362 1037.5) (0.0051865 0.0051865 1612.67)
1800          (0.00704748 0.00704748 3218.02) (0.00284184 0.00284184 3132.67) (0.0182156 0.0182156 2909.24) (-0.00340717 -0.00340716 2550.22) (0.0180816 0.0180816 2083.08) (0.0800567 0.0800567 1359.32) (-0.0192545 -0.0192545 596.359) (-0.0110645 -0.0110645 272.788) (-0.00167606 -0.00167606 480.001) (0.0108859 0.0108859 1033.96) (0.012369 0.012369 1590.47)
1850          (0.0174231 0.0174231 3174.84) (0.0143038 0.0143038 3093.09) (-0.000643437 -0.000643437 2879.1) (0.0157052 0.0157052 2534.73) (-0.00888921 -0.00888921 2085.01) (0.119049 0.119049 1374.31) (-0.00427682 -0.00427682 624.035) (-0.00582615 -0.00582615 289.993) (-0.00941851 -0.00941851 489.127) (-0.0104038 -0.0104038 1030.36) (0.00182294 0.00182294 1569.18)
1900          (0.00815993 0.00815993 3133.43) (0.00357002 0.00357002 3055.03) (0.00745524 0.00745524 2849.84) (-0.00377661 -0.00377661 2519.24) (0.0144006 0.0144006 2085.95) (0.0555891 0.0555891 1387.98) (-0.0061009 -0.0061009 651.172) (-0.00380458 -0.00380458 307.39) (0.00160719 0.00160719 498.073) (0.00913176 0.00913176 1026.7) (0.0101693 0.0101693 1548.71)
1950          (0.00366911 0.00366911 3093.67) (-0.00132213 -0.00132213 3018.4) (-0.0015716 -0.0015716 2821.45) (0.00467713 0.00467713 2503.76) (-0.00390167 -0.00390167 2086.04) (0.0433684 0.0433684 1400.44) (-0.00142829 -0.00142829 677.716) (0.000831635 0.000831635 324.936) (-0.0011328 -0.0011328 506.868) (-0.00489789 -0.00489789 1023.02) (0.000741098 0.000741098 1529.05)
2000          (0.000901091 0.000901092 3055.44) (0.000739754 0.000739753 2983.11) (-0.00117733 -0.00117733 2793.88) (-0.00618433 -0.00618433 2488.34) (0.00951674 0.00951674 2085.37) (0.0162831 0.0162831 1411.89) (0.000344029 0.000344029 703.654) (0.00157054 0.00157054 342.602) (9.72651e-05 9.72651e-05 515.526) (0.00394276 0.00394276 1019.32) (0.00400746 0.00400746 1510.12)
2050          (-0.0102111 -0.0102111 3018.66) (-0.0210593 -0.0210593 2949.11) (-0.00841011 -0.00841011 2767.13) (0.00954018 0.00954018 2473) (-0.0147297 -0.0147297 2084.04) (-0.107694 -0.107694 1422.64) (-0.00202103 -0.00202103 728.969) (0.0120463 0.0120463 360.352) (0.0074086 0.0074086 524.068) (-0.0132011 -0.0132011 1015.62) (-0.0136687 -0.0136687 1491.89)
2100          (-0.000312373 -0.000312372 2983.25) (-0.022783 -0.022783 2916.3) (0.0081862 0.0081862 2741.12) (0.0139723 0.0139723 2457.79) (-0.0100339 -0.0100339 2082.1) (-0.0258118 -0.0258118 1432.08) (-0.0124131 -0.0124131 753.64) (0.00391914 0.00391914 378.162) (0.0131988 0.0131988 532.503) (-0.0128234 -0.0128234 1011.95) (-0.0116364 -0.0116364 1474.32)
2150          (-0.000111951 -0.000111951 2949.12) (0.00400674 0.00400674 2884.59) (-0.00384134 -0.00384134 2715.86) (-0.00559547 -0.00559547 2442.71) (0.00526749 0.00526749 2079.65) (0.00952035 0.00952035 1440.44) (0.00268593 0.00268593 777.641) (0.00343356 0.00343356 395.986) (-0.00145588 -0.00145588 540.849) (0.000816497 0.000816497 1008.3) (0.00285503 0.00285503 1457.37)
2200          (-0.00173271 -0.00173271 2916.2) (-0.0276572 -0.0276572 2854) (0.0103921 0.0103921 2691.31) (0.0170952 0.0170952 2427.77) (-0.0285525 -0.0285525 2076.74) (-0.0446308 -0.0446308 1448.52) (-0.0136258 -0.0136258 801.014) (-0.00012251 -0.00012251 413.821) (0.0150846 0.0150846 549.118) (-0.00750983 -0.00750983 1004.69) (-0.00988037 -0.00988037 1441.01)
2250          (-0.00108894 -0.00108894 2884.43) (-0.0252338 -0.0252338 2824.41) (0.0101554 0.0101554 2667.44) (0.0142506 0.0142506 2413) (-0.0227378 -0.0227378 2073.4) (-0.0349918 -0.0349918 1455.64) (-0.0145423 -0.0145423 823.723) (-0.00203805 -0.00203805 431.623) (0.0160772 0.0160772 557.321) (-0.0074682 -0.0074682 1001.13) (-0.0102788 -0.0102788 1425.2)
2300          (-0.00106663 -0.00106663 2853.74) (-0.023404 -0.023404 2795.78) (0.0105314 0.0105314 2644.22) (0.0110773 0.0110773 2398.42) (-0.0199739 -0.0199739 2069.7) (-0.0332094 -0.0332094 1462.05) (-0.0147358 -0.0147358 845.769) (-0.00389509 -0.00389509 449.37) (0.0165232 0.0165232 565.464) (-0.00710049 -0.00710049 997.637) (-0.0103185 -0.0103185 1409.92)
2350          (-0.00112142 -0.00112142 2824.08) (-0.0221917 -0.0221917 2768.06) (0.0113697 0.0113697 2621.64) (0.00798174 0.00798174 2384.03) (-0.0171268 -0.0171268 2065.7) (-0.0327785 -0.0327785 1467.85) (-0.015147 -0.015147 867.158) (-0.00589844 -0.00589844 467.039) (0.0161964 0.0161964 573.555) (-0.0064575 -0.0064575 994.208) (-0.0100288 -0.0100288 1395.15)
2400          (-0.00129281 -0.00129281 2795.38) (-0.0215832 -0.0215832 2741.22) (0.0126841 0.0126841 2599.66) (0.00450918 0.00450918 2369.83) (-0.0135999 -0.0135999 2061.42) (-0.0338603 -0.0338603 1473.07) (-0.0158483 -0.0158483 887.9) (-0.00833494 -0.00833494 484.609) (0.0148547 0.0148547 581.601) (-0.00551329 -0.00551329 990.854) (-0.00936103 -0.00936103 1380.86)
2450          (-0.00161975 -0.00161975 2767.61) (-0.0211928 -0.0211928 2715.21) (0.0143371 0.0143371 2578.26) (0.000288789 0.000288789 2355.84) (-0.00883057 -0.00883057 2056.9) (-0.0369183 -0.0369183 1477.77) (-0.01654 -0.01654 908.005) (-0.011211 -0.011211 502.061) (0.0119966 0.0119966 589.606) (-0.00425466 -0.00425466 987.581) (-0.0082196 -0.0082196 1367.02)
2500          (-0.00204939 -0.00204939 2740.72) (-0.0202452 -0.0202452 2689.98) (0.015653 0.015653 2557.43) (-0.0043229 -0.0043229 2342.06) (-0.00296545 -0.00296545 2052.17) (-0.0417564 -0.0417564 1481.98) (-0.0164597 -0.0164597 927.482) (-0.0138047 -0.0138047 519.376) (0.00744135 0.00744135 597.575) (-0.00286033 -0.00286033 984.394) (-0.00664228 -0.00664228 1353.62)
2550          (-0.00242475 -0.00242475 2714.66) (-0.0184198 -0.0184198 2665.51) (0.0159169 0.0159169 2537.14) (-0.00806709 -0.00806709 2328.49) (0.00249367 0.00249367 2047.27) (-0.0466361 -0.0466361 1485.73) (-0.0151984 -0.0151984 946.343) (-0.0151189 -0.0151189 536.538) (0.00231775 0.00231775 605.512) (-0.00179191 -0.00179191 981.298) (-0.00505921 -0.00505921 1340.64)
2600          (-0.00266573 -0.00266573 2689.4) (-0.0164205 -0.0164205 2641.76) (0.0153596 0.0153596 2517.38) (-0.0102389 -0.0102389 2315.14) (0.00622581 0.00622581 2042.21) (-0.0498913 -0.0498913 1489.08) (-0.0134126 -0.0134126 964.601) (-0.0151802 -0.0151802 553.532) (-0.00184422 -0.00184422 613.418) (-0.0013636 -0.0013636 978.296) (-0.00394853 -0.00394853 1328.06)
2650          (-0.00280963 -0.00280963 2664.89) (-0.0148912 -0.0148912 2618.7) (0.0146075 0.0146075 2498.12) (-0.0112065 -0.0112065 2302) (0.00829257 0.00829257 2037.02) (-0.0514035 -0.0514035 1492.04) (-0.0118295 -0.0118295 982.268) (-0.0146764 -0.0146764 570.346) (-0.00463378 -0.00463378 621.295) (-0.0014886 -0.0014886 975.392) (-0.0033823 -0.0033823 1315.86)
2700          (-0.00290251 -0.00290251 2641.11) (-0.0139145 -0.0139145 2596.3) (0.0139669 0.0139669 2479.34) (-0.0115251 -0.0115251 2289.08) (0.00929313 0.00929313 2031.72) (-0.0517443 -0.0517443 1494.64) (-0.010652 -0.010652 999.359) (-0.0140618 -0.0140618 586.968) (-0.00637794 -0.00637794 629.145) (-0.001943 -0.001943 972.589) (-0.00319808 -0.00319808 1304.03)
2750          (-0.00296528 -0.00296528 2618.03) (-0.0133343 -0.0133343 2574.54) (0.0134819 0.0134819 2461.04) (-0.0115353 -0.0115353 2276.37) (0.00970223 0.00970223 2026.34) (-0.0514102 -0.0514102 1496.92) (-0.00981267 -0.00981267 1015.89) (-0.0134921 -0.0134921 603.387) (-0.00746473 -0.00746473 636.969) (-0.00255142 -0.00255142 969.889) (-0.00323094 -0.00323094 1292.56)
2800          (-0.0030049 -0.0030049 2595.61) (-0.0129868 -0.0129868 2553.37) (0.0131132 0.0131132 2443.2) (-0.0114036 -0.0114036 2263.88) (0.00979682 0.00979682 2020.88) (-0.0507043 -0.0507043 1498.89) (-0.00920074 -0.00920074 1031.87) (-0.0129949 -0.0129949 619.594) (-0.00815958 -0.00815958 644.766) (-0.00320741 -0.00320741 967.293) (-0.00337087 -0.00337087 1281.43)
2850          (-0.00302401 -0.00302401 2573.82) (-0.012758 -0.012758 2532.79) (0.0128151 0.0128151 2425.79) (-0.0112066 -0.0112066 2251.61) (0.00972605 0.00972605 2015.36) (-0.049797 -0.049797 1500.58) (-0.00873032 -0.00873032 1047.31) (-0.0125617 -0.0125617 635.581) (-0.00862115 -0.00862115 652.538) (-0.00385222 -0.00385222 964.804) (-0.00355349 -0.00355349 1270.62)
2900          (-0.00302466 -0.00302466 2552.64) (-0.0125791 -0.0125791 2512.77) (0.0125542 0.0125542 2408.81) (-0.0109795 -0.0109795 2239.56) (0.0095689 0.0095689 2009.79) (-0.0487829 -0.0487829 1502.02) (-0.00834611 -0.00834611 1062.24) (-0.0121791 -0.0121791 651.339) (-0.00894096 -0.00894096 660.283) (-0.00445583 -0.00445583 962.422) (-0.00374345 -0.00374345 1260.14)
2950          (-0.00300907 -0.00300907 2532.04) (-0.0124119 -0.0124119 2493.29) (0.012309 0.012309 2392.24) (-0.0107383 -0.0107383 2227.71) (0.00936705 0.00936705 2004.19) (-0.0477148 -0.0477148 1503.21) (-0.00801502 -0.00801502 1076.66) (-0.0118361 -0.0118361 666.864) (-0.00917155 -0.00917155 668.001) (-0.00500476 -0.00500476 960.148) (-0.00392259 -0.00392259 1249.96)
3000          (-0.00548156 -0.00548156 2512.03) (0.00381282 0.00381282 2474.32) (-0.00531722 -0.00531722 2376.09) (0.00516725 0.00516725 2216.08) (-0.0106163 -0.0106163 1998.56) (-0.0847542 -0.0847542 1504.22) (0.00341616 0.00341616 1090.61) (0.00590329 0.00590329 682.149) (0.00518878 0.00518878 675.687) (0.00506959 0.00506959 957.978) (-0.00337465 -0.00337465 1240.07)
3050          (0.00319882 0.00319882 2492.55) (0.00168276 0.00168276 2455.87) (0.00366351 0.00366351 2360.31) (0.0129546 0.0129546 2204.65) (0.0371846 0.0371846 1992.88) (0.0110954 0.0110954 1504.92) (-0.0122867 -0.0122867 1104.08) (0.00225692 0.00225692 697.205) (0.000532043 0.000532043 683.353) (-0.000138904 -0.000138904 955.922) (-0.00489732 -0.00489732 1230.47)
3100          (-0.00801346 -0.00801346 2473.59) (-0.00134203 -0.00134203 2437.89) (-0.00697592 -0.00697592 2344.92) (-0.0139414 -0.0139414 2193.46) (-0.0151278 -0.0151278 1987.27) (-0.11297 -0.11297 1505.55) (0.0143211 0.0143211 1117.07) (-0.00264436 -0.00264436 712.014) (0.00430697 0.00430697 690.986) (-0.00151657 -0.00151657 953.973) (-0.00661495 -0.00661495 1221.15)
3150          (0.000435246 0.000435246 2455.13) (0.00524026 0.00524026 2420.37) (0.00783082 0.00783082 2329.87) (0.0144456 0.0144456 2182.42) (0.0318391 0.0318391 1981.58) (0.00176731 0.00176731 1505.86) (-0.0152274 -0.0152274 1129.63) (0.0101811 0.0101811 726.563) (-0.00509036 -0.00509036 698.591) (0.0030336 0.0030336 952.13) (-0.00514872 -0.00514872 1212.1)
3200          (-0.00543747 -0.00543747 2437.14) (-0.00314703 -0.00314703 2403.3) (-0.00740548 -0.00740548 2315.19) (-0.0122687 -0.0122687 2171.63) (-0.0114784 -0.0114784 1975.97) (-0.104241 -0.104241 1506.14) (0.0142312 0.0142312 1141.73) (-0.00565844 -0.00565844 740.874) (0.00753745 0.00753745 706.153) (-0.00347623 -0.00347623 950.4) (-0.00599018 -0.00599018 1203.31)
3250          (-0.00206726 -0.00206726 2419.62) (0.00688609 0.00688609 2386.64) (0.00756305 0.00756305 2300.83) (0.0120447 0.0120447 2161) (0.0279409 0.0279409 1970.31) (0.00135448 0.00135448 1506.14) (-0.0150395 -0.0150395 1153.44) (0.011737 0.011737 754.913) (-0.00783146 -0.00783146 713.691) (0.00490141 0.00490141 948.771) (-0.00491428 -0.00491428 1194.77)
3300          (-0.0036642 -0.0036642 2402.54) (-0.00382525 -0.00382525 2370.41) (-0.00679839 -0.00679839 2286.82) (-0.0104948 -0.0104948 2150.59) (-0.00924043 -0.00924043 1964.73) (-0.097522 -0.097522 1506.13) (0.0133085 0.0133085 1164.72) (-0.00615086 -0.00615086 768.715) (0.00840358 0.00840358 721.177) (-0.00428481 -0.00428481 947.257) (-0.00541598 -0.00541598 1186.47)
3350          (-0.0032438 -0.0032438 2385.89) (0.00744258 0.00744258 2354.57) (0.00705295 0.00705295 2273.1) (0.0104891 0.0104891 2140.34) (0.0254866 0.0254866 1959.12) (0.00120602 0.00120602 1505.87) (-0.0142957 -0.0142957 1175.63) (0.0116435 0.0116435 782.242) (-0.00854055 -0.00854055 728.64) (0.00563686 0.00563686 945.839) (-0.00472627 -0.00472627 1178.42)
3400          (-0.00278328 -0.00278328 2369.65) (-0.0040591 -0.0040591 2339.13) (-0.00639995 -0.00639995 2259.72) (-0.00949066 -0.00949066 2130.32) (-0.00802681 -0.00802681 1953.6) (-0.0920779 -0.0920779 1505.61) (0.0124122 0.0124122 1186.14) (-0.00604587 -0.00604587 795.533) (0.00845816 0.00845816 736.044) (-0.00454998 -0.00454998 944.536) (-0.00491119 -0.00491119 1170.6)
3450          (-0.00822646 -0.00822646 2353.84) (0.00233072 0.00233072 2324.05) (0.00339378 0.00339378 2246.63) (0.00738182 0.00738182 2120.45) (0.0144912 0.0144912 1948.06) (-0.0256137 -0.0256137 1505.37) (-0.0116534 -0.0116534 1196.33) (0.0152038 0.0152038 808.564) (-0.00653621 -0.00653621 743.431) (0.00634473 0.00634473 943.323) (-0.00779331 -0.00779331 1163.01)
3500          (-0.00657917 -0.00657917 2338.4) (-0.00590855 -0.00590855 2309.35) (-0.00533876 -0.00533876 2233.84) (-0.00185667 -0.00185667 2110.78) (0.00939261 0.00939261 1942.58) (-0.0316848 -0.0316848 1504.82) (-0.0117243 -0.0117243 1206.13) (0.013555 0.013555 821.344) (-0.00496203 -0.00496203 750.758) (0.00628283 0.00628283 942.219) (-0.00819477 -0.00819477 1155.64)
3550          (-0.00320383 -0.00320383 2323.34) (-0.0106536 -0.0106536 2295) (-0.0115869 -0.0115869 2221.34) (-0.0131323 -0.0131323 2101.29) (0.00320004 0.00320004 1937.13) (-0.0267489 -0.0267489 1504.17) (-0.00986767 -0.00986767 1215.59) (0.0080062 0.0080062 833.874) (-0.0002208 -0.000220799 758.037) (0.00478575 0.00478575 941.215) (-0.00785407 -0.00785407 1148.48)
3600          (-0.00199365 -0.00199365 2308.63) (-0.00673106 -0.00673106 2280.97) (-0.010044 -0.010044 2209.1) (-0.0219503 -0.0219503 2091.97) (-0.00423502 -0.00423502 1931.72) (-0.0017976 -0.0017976 1503.45) (-0.00647486 -0.00647486 1224.73) (-0.000569384 -0.000569384 846.153) (0.00457207 0.00457207 765.268) (0.00423784 0.00423784 940.31) (-0.00570726 -0.00570726 1141.53)
3650          (0.002943 0.002943 2294.28) (0.00329347 0.00329347 2267.27) (-0.00148564 -0.00148564 2197.13) (-0.0296273 -0.0296273 2082.82) (-0.00944013 -0.00944013 1926.37) (0.131269 0.131269 1502.37) (-0.00850705 -0.00850705 1233.54) (-0.0152348 -0.0152348 858.196) (0.00216516 0.00216516 772.457) (0.00696777 0.00696777 939.499) (0.00380107 0.00380107 1134.78)
3700          (0.000294492 0.000294493 2280.25) (-0.00280052 -0.00280052 2253.89) (-0.00378684 -0.00378684 2185.42) (0.0113193 0.0113193 2073.8) (0.0058889 0.0058889 1921.02) (-0.0496838 -0.0496838 1501.43) (0.00111562 0.00111562 1242.03) (0.00472687 0.00472687 869.945) (-0.00141404 -0.00141404 779.577) (-0.00306989 -0.00306989 938.791) (-0.000724186 -0.000724186 1128.25)
3750          (-0.00119421 -0.00119421 2266.57) (-0.00273378 -0.00273378 2240.82) (-0.0170134 -0.0170134 2173.97) (0.0219317 0.0219317 2064.97) (0.0179002 0.0179002 1915.78) (-0.0424923 -0.0424923 1500.76) (-0.00668867 -0.00668867 1250.2) (0.00528063 0.00528063 881.486) (-0.00263742 -0.00263742 786.661) (-0.0049308 -0.0049308 938.172) (0.0012081 0.0012081 1121.91)
3800          (0.00149718 0.00149718 2253.2) (-0.00269402 -0.00269402 2228.05) (0.0393938 0.0393938 2162.72) (-0.0349933 -0.0349933 2056.34) (-0.0245471 -0.0245471 1910.62) (0.0573188 0.0573188 1499.76) (0.00275002 0.00275002 1258.1) (-0.0106997 -0.0106997 892.786) (-0.00165084 -0.00165084 793.683) (0.00508129 0.00508129 937.639) (-0.00444483 -0.00444483 1115.76)
3850          (-0.0122503 -0.0122503 2240.13) (0.00712749 0.00712749 2215.54) (-0.0402429 -0.0402429 2151.79) (0.0193994 0.0193994 2047.79) (0.0168395 0.0168395 1905.37) (-0.129489 -0.129489 1498.69) (-0.00607886 -0.00607886 1265.78) (0.0103873 0.0103873 903.832) (0.00877857 0.00877857 800.646) (0.000483315 0.000483315 937.203) (-0.00436485 -0.00436485 1109.79)
3900          (-0.000213757 -0.000213756 2227.35) (-0.00769978 -0.00769978 2203.34) (0.0178157 0.0178157 2141.01) (-0.0115727 -0.0115727 2039.46) (-0.0112256 -0.0112256 1900.26) (-0.0253905 -0.0253905 1497.55) (0.00800482 0.00800482 1273.16) (0.00325732 0.00325732 914.641) (0.000765629 0.000765629 807.55) (-0.000843302 -0.000843302 936.852) (-0.00459308 -0.00459308 1104.01)
3950          (-0.00439325 -0.00439325 2214.85) (0.005071 0.005071 2191.38) (-0.0127564 -0.0127564 2130.5) (0.00731466 0.00731466 2031.24) (0.00640444 0.00640444 1895.19) (-0.038522 -0.038522 1496.14) (-0.00551366 -0.00551366 1280.24) (-0.00053692 -0.00053692 925.212) (0.00118693 0.00118693 814.39) (0.000957468 0.000957468 936.587) (-0.00199883 -0.00199883 1098.41)