# Probe 0 (0.0015 0.0015 0)
# Probe 1 (0.0015 0.0015 0.01)
# Probe 2 (0.0015 0.0015 0.02)
# Probe 3 (0.0015 0.0015 0.03)
# Probe 4 (0.0015 0.0015 0.04)
# Probe 5 (0.0015 0.0015 0.05)
# Probe 6 (0.0015 0.0015 0.06)
# Probe 7 (0.0015 0.0015 0.07)
# Probe 8 (0.0015 0.0015 0.08)
# Probe 9 (0.0015 0.0015 0.09)
# Probe 10 (0.0015 0.0015 0.1)
# Time        0             1             2             3             4             5             6             7             8             9             10           
50            (2.44821e-11 -4.78947e-11 -3.1184e-11) (3.41485e-11 -5.24578e-11 -6.34114e-10) (-4.18736e-11 -3.05452e-13 -1.19784e-09) (9.62999e-12 2.22901e-11 -1.61341e-09) (-3.03228e-11 -3.37575e-12 -1.56079e-09) (-3.26043e-11 5.52548e-11 -1.68584e-09) (-1.48624e-11 -6.82068e-12 -1.08044e-09) (-2.24783e-11 -7.7943e-12 -7.44762e-10) (-1.44296e-11 7.38674e-12 -4.50641e-10) (-1.98995e-11 -2.88997e-11 -6.21725e-11) (6.54503e-12 -4.20965e-12 1.75317e-10)
100           (-1.7693e-11 3.52631e-11 -2.61605e-11) (-7.41452e-11 3.56553e-11 -4.65842e-10) (2.9924e-11 1.47247e-11 2.88497e-11) (2.1779e-12 -5.8787e-12 1.11606e-09) (-2.29119e-11 -1.43382e-11 1.98871e-09) (-1.82616e-11 -3.51086e-11 2.91775e-09) (2.96344e-11 -4.18389e-11 3.21856e-09) (-2.266e-12 1.38838e-12 3.46356e-09) (-1.38382e-11 8.8208e-13 3.80101e-09) (1.61452e-12 -6.32619e-12 4.2184e-09) (1.59024e-13 2.13431e-11 4.40319e-09)
150           (-1.94175e-11 5.15257e-11 -1.06395e-10) (-2.87734e-11 -3.88314e-11 -2.69872e-10) (-4.71926e-11 2.99351e-11 1.49125e-10) (-9.67832e-11 1.42824e-11 6.29302e-10) (-5.29343e-11 5.05722e-11 1.11481e-09) (-8.56856e-11 1.06362e-10 1.85647e-09) (-4.5528e-12 1.88109e-11 2.13918e-09) (7.44819e-13 7.24466e-12 2.45558e-09) (7.99527e-12 -1.08819e-11 2.83397e-09) (1.06132e-11 -1.44278e-11 3.09952e-09) (-1.35218e-11 1.96613e-11 3.157e-09)
200           (6.78148e-11 6.00028e-11 -1.58504e-12) (6.85228e-11 1.04539e-12 -2.467e-10) (-3.5059e-11 -6.22451e-11 3.4266e-10) (-1.83257e-11 2.81496e-11 1.27105e-09) (-4.77272e-12 3.99095e-12 1.62265e-09) (-1.9932e-12 -1.36202e-11 2.75307e-09) (-2.85748e-11 -3.36934e-11 2.89587e-09) (6.82048e-13 -2.6916e-11 3.21964e-09) (1.20639e-11 -7.79819e-13 3.67371e-09) (-2.44825e-11 -2.53072e-12 3.97347e-09) (-7.87947e-13 1.47273e-11 4.10384e-09)
250           (1.21723e-12 3.16534e-11 3.65688e-11) (7.77265e-11 -8.86796e-13 -3.56978e-10) (3.10692e-11 -5.17873e-11 5.61705e-11) (3.6204e-11 -2.3319e-11 7.11877e-10) (-6.77019e-11 -4.56315e-11 1.00944e-09) (-5.6093e-11 -3.82441e-11 2.23858e-09) (-5.04622e-12 -1.41132e-11 2.33869e-09) (-2.57112e-12 -9.0859e-12 2.74708e-09) (-4.24616e-11 1.28916e-11 3.08326e-09) (5.41339e-12 -2.94025e-12 3.4188e-09) (-2.12669e-11 2.10006e-11 3.58152e-09)
300           (2.78969e-11 -3.39676e-11 9.26754e-11) (-3.89063e-11 1.4456e-11 -2.05047e-10) (1.9925e-11 2.41655e-11 5.82775e-10) (8.27524e-12 3.77614e-11 1.21367e-09) (-4.13401e-11 -3.42217e-11 2.10478e-09) (3.40759e-11 4.00271e-12 3.83802e-09) (6.5883e-12 8.05357e-12 4.04352e-09) (9.46182e-13 5.4716e-12 4.26209e-09) (7.60866e-12 -5.80056e-12 4.58232e-09) (3.18056e-12 -6.30659e-12 4.87778e-09) (-1.43581e-11 7.06592e-12 5.14812e-09)
350           (3.36767e-11 6.60793e-11 -7.28619e-12) (1.45767e-11 1.95449e-11 -2.75405e-10) (-6.35724e-12 -1.61451e-11 3.75567e-10) (-1.33901e-11 2.05782e-12 7.10595e-10) (-7.17764e-12 -1.62528e-11 1.63737e-09) (1.98803e-11 -2.76683e-11 2.6899e-09) (7.87067e-12 -1.48868e-11 2.97139e-09) (7.81304e-12 2.2132e-12 3.30511e-09) (1.58815e-12 6.47752e-12 3.66783e-09) (-1.87227e-11 2.53385e-11 4.06152e-09) (-6.32278e-12 -1.24814e-11 4.14141e-09)
400           (2.82782e-12 9.47581e-11 2.93083e-12) (3.50486e-11 1.81835e-12 -3.75486e-10) (3.34327e-11 2.07369e-11 1.93727e-10) (-5.32075e-11 -3.58175e-11 8.316e-10) (-3.55114e-11 -6.61819e-11 1.42978e-09) (-1.17859e-11 -1.66238e-11 1.87425e-09) (9.99627e-13 6.09324e-12 1.81272e-09) (6.17535e-12 9.01987e-12 1.50427e-09) (2.17574e-11 -1.07122e-12 1.26609e-09) (-1.19209e-11 8.19684e-12 1.55263e-09) (9.60033e-12 6.72348e-12 1.77185e-09)
450           (-1.06809e-11 1.92576e-11 1.41355e-10) (1.50233e-11 1.35541e-12 -3.00611e-10) (2.58179e-11 -3.43893e-11 4.26991e-10) (5.25356e-12 1.57474e-11 9.64846e-10) (-2.17448e-11 1.59062e-11 1.72872e-09) (2.57302e-11 3.61921e-11 1.97947e-09) (-1.42866e-11 -5.99286e-12 1.81365e-09) (-8.01962e-12 6.83654e-12 1.46577e-09) (-5.49005e-12 1.34492e-11 1.55364e-09) (-6.92271e-12 7.49033e-12 1.92283e-09) (4.58651e-13 9.41961e-13 1.98706e-09)
500           (1.50007e-11 1.61768e-12 1.0262e-10) (4.19052e-12 -6.99644e-11 -3.3284e-10) (7.20438e-11 7.01774e-11 4.56583e-10) (1.32646e-11 8.276e-12 9.70819e-10) (-1.74099e-11 3.37339e-11 1.51545e-09) (-2.80873e-11 6.92906e-11 1.82866e-09) (4.35376e-13 1.47217e-11 1.4639e-09) (1.43094e-13 1.5624e-11 1.15208e-09) (-5.80512e-12 -7.78161e-13 7.78215e-10) (-7.15236e-12 -3.19447e-12 1.1534e-09) (-1.26146e-12 9.85031e-12 1.32833e-09)
550           (-4.69669e-11 6.51566e-13 3.5975e-11) (-9.07165e-11 5.62939e-11 -4.89202e-10) (7.04001e-13 -7.57481e-11 1.55181e-10) (-9.91228e-12 2.43726e-12 1.01894e-09) (5.29597e-11 -1.07605e-10 1.58179e-09) (5.02087e-12 5.30949e-11 2.16899e-09) (2.21698e-15 -1.93629e-11 1.97656e-09) (-7.41837e-13 5.94658e-12 1.7618e-09) (-2.93863e-12 -1.43098e-12 1.79163e-09) (-7.72354e-12 5.97475e-12 2.19452e-09) (-8.53017e-12 6.54511e-12 2.34481e-09)
600           (-3.87869e-12 1.54226e-11 -7.49312e-11) (5.2484e-11 1.74952e-11 -5.1432e-10) (1.71017e-11 -1.80513e-11 1.13389e-10) (4.45129e-11 1.72384e-11 8.11629e-10) (3.6633e-11 -3.23189e-11 1.66387e-09) (-4.4043e-11 -1.16614e-12 2.18691e-09) (-3.4282e-11 -8.35074e-12 2.5428e-09) (-1.46465e-11 1.31369e-11 2.89045e-09) (-7.74329e-12 -2.04145e-11 3.12844e-09) (2.74245e-11 4.98062e-13 3.54521e-09) (-6.31563e-12 1.32797e-11 3.6707e-09)
650           (-3.57575e-11 -7.20484e-11 2.17581e-11) (3.43873e-11 -2.32618e-11 -1.25508e-10) (-2.67929e-11 2.44635e-11 7.79501e-10) (1.33396e-11 -1.75779e-12 1.25867e-09) (2.02582e-11 -4.63887e-11 2.06901e-09) (-3.25339e-11 3.1028e-12 3.17397e-09) (2.02416e-11 -1.99181e-12 3.42975e-09) (7.86894e-12 -1.23013e-11 3.78364e-09) (-1.91629e-11 -2.11313e-11 4.13892e-09) (1.25253e-12 -1.2518e-13 4.47726e-09) (7.34717e-12 -1.38748e-11 4.60501e-09)
700           (1.5919e-11 -1.6541e-11 -5.593e-11) (-3.49369e-11 -4.96363e-11 -3.41075e-10) (-3.72025e-11 3.30295e-12 2.57884e-10) (-2.07498e-11 -1.99336e-11 1.05651e-09) (4.94394e-11 -3.74387e-11 1.72025e-09) (-4.07746e-12 -3.14978e-11 2.20684e-09) (-1.18632e-11 -1.52481e-11 2.13923e-09) (1.81098e-11 7.39216e-12 1.77148e-09) (3.03508e-14 -4.66507e-14 1.46489e-09) (8.43523e-13 -2.69894e-11 1.53765e-09) (1.55654e-11 1.8284e-12 1.63482e-09)
750           (-3.36512e-11 -2.06977e-11 1.01338e-10) (-1.81412e-11 4.95341e-14 -1.16791e-10) (-3.31145e-11 2.32017e-11 6.63385e-10) (3.30677e-11 -3.329e-11 1.41873e-09) (-1.61152e-11 -8.12918e-12 2.0321e-09) (-4.65259e-12 3.99915e-11 2.39883e-09) (-2.68107e-11 4.30767e-12 2.21779e-09) (-1.52902e-11 -1.90636e-12 1.91516e-09) (-1.47721e-11 1.54683e-11 1.73302e-09) (2.04698e-13 1.41103e-11 2.06385e-09) (2.0006e-11 6.37824e-12 2.19588e-09)
800           (1.59116e-11 3.39395e-11 3.7884e-12) (7.26209e-13 -1.23455e-11 -2.86447e-10) (-8.56843e-11 -6.44504e-11 3.51214e-10) (-9.60562e-13 3.41462e-11 9.44395e-10) (4.71705e-12 3.30045e-12 1.62401e-09) (4.73788e-11 -3.60266e-11 2.10623e-09) (-6.77935e-12 -1.18292e-11 1.8387e-09) (2.0423e-11 7.81044e-12 1.54449e-09) (5.80593e-12 -3.9084e-13 1.44468e-09) (2.05353e-11 -8.12224e-12 1.86247e-09) (-9.08541e-12 2.72715e-11 2.04893e-09)
850           (1.46575e-11 -1.42719e-11 3.19483e-11) (1.75178e-11 9.90245e-12 -3.77725e-10) (3.24579e-11 -8.05715e-11 3.44291e-10) (2.27587e-11 -1.52162e-11 9.06565e-10) (-1.39977e-11 -4.81145e-11 1.56639e-09) (3.57828e-11 2.86326e-11 2.03372e-09) (-2.01507e-11 -1.59302e-12 1.68842e-09) (-1.85185e-11 1.10167e-11 1.31959e-09) (-2.10924e-11 6.91784e-12 9.98355e-10) (1.88443e-12 5.17905e-12 8.3322e-10) (-6.46326e-12 1.23032e-11 9.66133e-10)
900           (-6.6277e-11 4.43739e-11 -2.67011e-11) (-9.07341e-11 2.14877e-11 -5.03478e-10) (2.31262e-11 -2.88642e-12 1.37231e-10) (-4.0711e-11 1.9848e-11 8.42421e-10) (5.77775e-11 -2.92298e-11 1.54075e-09) (5.126e-11 -1.49323e-12 1.6012e-09) (-1.30505e-11 2.24605e-11 1.34872e-09) (8.95032e-13 2.61136e-11 1.06318e-09) (1.01296e-12 1.4168e-11 9.95978e-10) (1.57453e-12 1.31776e-11 1.27454e-09) (6.85173e-12 -2.03476e-11 1.4495e-09)
950           (3.05312e-11 -1.69197e-11 6.13362e-11) (-1.93477e-11 -3.01659e-11 -2.87983e-10) (-1.02424e-10 -8.86656e-12 3.79062e-10) (-2.76641e-11 -3.9138e-12 8.23972e-10) (6.49146e-12 -3.03163e-11 1.74595e-09) (6.09929e-12 7.0299e-12 2.43813e-09) (-1.58866e-11 -3.5037e-11 2.38885e-09) (1.9118e-11 -1.20081e-11 2.44904e-09) (-6.39972e-12 -2.80927e-11 2.7856e-09) (1.49099e-11 9.15134e-12 3.11742e-09) (-2.06901e-11 -2.01445e-11 3.33661e-09)
1000          (-5.34197e-11 6.45909e-12 3.73085e-11) (1.31038e-11 3.44041e-11 -3.84244e-10) (-2.05202e-11 4.82407e-11 3.25331e-10) (-3.70889e-11 9.49311e-12 1.04815e-09) (6.17926e-11 -8.78266e-11 1.91137e-09) (-2.27919e-11 3.21242e-11 2.58534e-09) (-5.20802e-12 -1.35647e-11 2.65008e-09) (1.48983e-11 -7.04396e-12 3.03269e-09) (1.44503e-11 -2.60749e-11 3.39793e-09) (-2.44882e-12 5.9153e-12 3.71805e-09) (-7.43376e-13 1.50495e-11 4.01449e-09)
1050          (3.22284e-11 3.5718e-11 2.87829e-13) (-8.13159e-12 -1.22638e-11 -2.58728e-10) (1.31038e-11 4.46056e-12 3.90637e-10) (-1.91834e-11 2.58619e-11 8.4565e-10) (4.96033e-11 4.11143e-11 1.62257e-09) (-2.30203e-11 -3.83772e-11 2.45666e-09) (1.32854e-11 1.33861e-11 2.86574e-09) (1.29615e-11 1.31846e-11 3.10832e-09) (-1.29594e-11 -1.28518e-11 3.57885e-09) (-1.38445e-11 -1.23347e-11 3.9435e-09) (-2.59256e-13 2.41959e-13 4.13269e-09)
1100          (-2.07743e-11 3.39967e-11 6.52962e-11) (-6.72047e-11 4.00207e-11 -3.95924e-10) (6.98997e-11 3.53508e-11 1.35543e-10) (2.13868e-11 -3.81209e-11 8.53508e-10) (-5.77202e-11 -1.39971e-11 1.45951e-09) (-1.7094e-11 1.37826e-11 2.18088e-09) (-3.6052e-11 1.37794e-11 2.08868e-09) (-3.55114e-11 -1.51344e-11 1.72877e-09) (-2.1133e-11 2.86042e-11 1.43145e-09) (7.14217e-13 1.39523e-11 1.56367e-09) (1.41541e-11 -1.51273e-11 1.7411e-09)
1150          (-3.07529e-11 -1.91555e-11 -3.13313e-11) (3.26636e-11 -9.78675e-11 -3.18445e-10) (-3.42221e-11 1.62945e-11 1.83903e-10) (-5.06008e-11 6.35708e-13 8.07422e-10) (-1.36164e-11 -3.04547e-11 1.55608e-09) (4.70187e-11 6.90206e-11 2.29669e-09) (6.4835e-12 2.1038e-11 1.94964e-09) (3.31223e-11 5.09048e-13 1.64858e-09) (-1.65897e-12 -9.90052e-12 1.53004e-09) (2.0699e-11 1.2704e-12 1.90165e-09) (1.61928e-11 7.36715e-12 2.05474e-09)
1200          (-2.00863e-11 -3.20882e-12 1.41625e-10) (-3.95727e-11 -1.29091e-11 -4.13326e-10) (-4.03957e-11 1.75213e-11 4.89815e-10) (2.49804e-12 1.71277e-11 8.56642e-10) (-1.61879e-11 3.55149e-11 1.34748e-09) (-3.09521e-11 -5.11994e-11 1.83523e-09) (-2.59556e-11 4.71038e-13 1.66799e-09) (9.52603e-12 2.22746e-11 1.34553e-09) (1.6079e-11 1.51914e-11 1.53795e-09) (9.05498e-12 2.82068e-11 1.89697e-09) (1.26797e-11 1.44589e-11 2.07257e-09)
1250          (-4.99726e-12 4.97863e-12 -3.32347e-11) (-8.89222e-12 -1.30105e-11 -2.58034e-10) (-2.41478e-11 -7.97506e-12 2.00692e-10) (-1.60338e-11 3.93511e-12 8.8199e-10) (3.30016e-11 3.03476e-11 1.50159e-09) (-4.75524e-11 -1.06969e-12 1.93519e-09) (-1.33906e-11 2.31558e-13 1.72954e-09) (-2.64668e-11 -1.11915e-12 1.3422e-09) (3.52281e-11 -1.54364e-11 9.64949e-10) (-5.96349e-12 2.77607e-11 5.95588e-10) (-1.33708e-11 -8.73336e-12 1.5721e-10)
1300          (2.07698e-11 -3.28865e-11 -6.55183e-11) (-8.77277e-11 4.76422e-11 -3.72471e-10) (-2.036e-11 1.93393e-11 5.27175e-10) (3.10871e-11 -2.95752e-12 1.06263e-09) (-3.6372e-11 1.98022e-11 1.79917e-09) (-3.11236e-11 -4.56553e-12 2.08688e-09) (-2.56364e-11 -3.98357e-12 1.84425e-09) (-1.14498e-11 6.83496e-12 1.48226e-09) (-1.89244e-13 2.89341e-12 1.13557e-09) (6.44605e-12 -7.70721e-12 7.29031e-10) (-9.15783e-12 -1.36405e-13 3.59758e-10)
1350          (3.82663e-11 -1.30641e-11 -6.62275e-11) (3.32672e-12 -6.50706e-11 -6.4532e-10) (-5.36473e-13 -3.38437e-11 1.7939e-10) (7.58404e-13 9.68382e-12 4.07226e-10) (3.02926e-11 -5.54231e-12 1.18307e-09) (-2.48713e-11 -3.74382e-11 1.59112e-09) (2.34341e-12 -2.07974e-11 1.3258e-09) (-1.22741e-11 -6.13644e-12 1.06029e-09) (-1.35914e-11 1.7582e-11 5.8784e-10) (-2.62541e-11 2.73562e-11 3.17085e-10) (-2.57821e-12 6.74696e-12 -2.95979e-11)
1400          (1.22472e-11 3.01297e-11 1.00007e-10) (-4.36296e-11 1.57889e-11 -4.042e-10) (-1.6194e-11 -4.21701e-11 4.24729e-10) (8.40558e-12 3.52104e-11 8.38388e-10) (3.80291e-11 2.59334e-12 1.51457e-09) (-3.74609e-11 -8.17147e-12 2.87469e-09) (1.3273e-11 2.90548e-12 3.08011e-09) (-5.43387e-12 1.68147e-12 3.35864e-09) (-1.41565e-11 1.50746e-11 3.65056e-09) (2.79592e-11 1.34375e-11 3.91457e-09) (-2.19242e-11 -1.4608e-11 4.09114e-09)
1450          (1.40779e-11 5.08579e-12 -5.80974e-11) (-7.08365e-11 3.99494e-11 -2.53442e-10) (-4.41311e-11 3.3377e-11 3.68483e-10) (-2.00761e-11 4.27137e-11 1.1364e-09) (-1.40877e-11 -2.96609e-12 1.64595e-09) (-1.85047e-11 -6.13175e-11 2.59876e-09) (3.38647e-12 6.9678e-12 2.84954e-09) (-1.56709e-11 -1.43641e-11 3.18691e-09) (-1.47934e-11 1.25483e-11 3.44236e-09) (8.10676e-12 -1.50517e-11 3.8991e-09) (1.39061e-11 -9.59899e-14 3.972e-09)
1500          (2.46739e-11 -3.30585e-11 -3.15362e-11) (-1.14182e-11 -3.09647e-12 -2.72405e-10) (-2.88373e-11 -1.97756e-11 3.64768e-10) (6.83279e-12 -3.79203e-11 7.84242e-10) (6.4667e-12 -3.32493e-11 1.3814e-09) (2.38199e-11 2.07866e-11 2.05686e-09) (-1.30348e-11 3.14277e-12 1.80596e-09) (-1.95199e-11 1.82723e-12 1.33153e-09) (-4.63949e-12 8.78162e-12 1.60049e-09) (-6.13453e-12 8.19775e-12 1.98402e-09) (3.06665e-12 2.66756e-12 2.04874e-09)
1550          (-4.721e-11 9.32558e-12 2.47182e-11) (-2.24131e-11 -2.57041e-11 -4.14345e-10) (-3.33682e-11 -3.15286e-11 2.18536e-10) (-1.36942e-11 -2.0177e-11 9.45944e-10) (7.40795e-12 -6.58719e-11 1.54358e-09) (3.92043e-11 -4.77332e-11 1.64818e-09) (7.08194e-12 -2.70174e-11 1.42723e-09) (-5.53427e-12 6.43921e-12 9.98213e-10) (1.66799e-11 8.41421e-12 6.66288e-10) (-1.70065e-12 2.24781e-11 3.84807e-10) (1.42449e-11 6.70961e-12 2.62061e-11)
1600          (-3.6566e-11 3.01448e-11 6.25262e-12) (1.05083e-11 -7.30939e-12 -2.61471e-10) (3.82598e-12 -4.23981e-11 2.71316e-10) (-1.38093e-11 -8.11731e-11 1.28129e-09) (1.91263e-11 1.45763e-11 1.78731e-09) (8.25778e-11 -1.14399e-11 2.47551e-09) (4.63554e-12 6.03768e-12 2.31196e-09) (6.93581e-12 -1.64343e-11 2.01106e-09) (-6.43404e-12 1.45328e-11 1.65794e-09) (1.42228e-11 -6.97255e-12 1.25398e-09) (-7.02205e-14 5.84335e-12 9.48786e-10)
1650          (5.49443e-11 5.15797e-12 2.81037e-11) (7.11868e-11 5.33016e-11 -3.58463e-10) (3.3209e-11 -3.99072e-11 2.03536e-10) (-4.09263e-11 6.73787e-11 9.60789e-10) (1.47411e-11 -3.48091e-11 1.58442e-09) (8.68753e-11 -3.44324e-11 1.83714e-09) (-2.91315e-11 1.33708e-11 1.65794e-09) (-1.37512e-11 -6.35494e-12 1.36691e-09) (1.29045e-11 1.33005e-11 9.56545e-10) (1.17289e-12 -2.0189e-11 6.52798e-10) (-2.81214e-13 -6.3619e-13 2.01852e-10)
1700          (5.07451e-11 -3.52968e-11 -1.95285e-13) (1.68293e-11 -2.54612e-12 -2.13531e-10) (-6.09324e-11 1.83082e-11 6.10096e-10) (8.53917e-12 2.85436e-11 1.03575e-09) (1.45873e-11 -2.51515e-11 1.74884e-09) (1.437e-11 -9.45348e-12 2.05709e-09) (-6.48463e-13 5.40804e-12 1.88059e-09) (-4.17829e-11 -1.90378e-11 1.55546e-09) (-7.4205e-12 1.89961e-11 1.24793e-09) (1.6132e-12 -3.32662e-11 9.32174e-10) (3.61093e-11 -2.12517e-11 4.79431e-10)
1750          (-4.63681e-11 -1.44357e-11 1.29008e-11) (3.90175e-11 1.63017e-11 -3.30577e-10) (2.40447e-11 -3.4957e-11 3.04984e-10) (-1.29118e-11 -3.1538e-11 1.08584e-09) (-7.59296e-12 1.09166e-11 1.48809e-09) (7.41582e-11 1.13924e-12 2.12227e-09) (1.35349e-11 -9.71979e-12 1.83593e-09) (-1.2085e-12 -1.76888e-11 1.60618e-09) (-1.3541e-12 -1.55185e-11 1.19902e-09) (3.05534e-13 6.32266e-13 8.13286e-10) (1.42753e-11 1.42163e-11 4.21676e-10)
1800          (4.49985e-11 -8.29076e-11 2.9665e-11) (1.5651e-11 5.56657e-12 -4.83206e-10) (3.73922e-12 -8.52472e-11 2.07912e-10) (1.60387e-11 -4.07306e-11 8.49265e-10) (-1.52808e-11 8.65106e-11 1.70669e-09) (1.72381e-12 1.91146e-11 2.36669e-09) (-2.67383e-11 -1.55497e-11 2.088e-09) (-2.71711e-11 -1.40232e-11 1.68583e-09) (1.31967e-11 1.21201e-11 1.76663e-09) (2.05945e-11 -7.51814e-12 2.05676e-09) (-2.03698e-11 -3.02465e-11 2.40702e-09)
1850          (-5.28324e-11 -4.63876e-11 5.91444e-12) (2.76629e-11 -9.87239e-11 -1.24492e-10) (-2.29384e-11 5.32757e-11 5.90704e-10) (2.25213e-12 -7.22979e-11 1.09071e-09) (1.93638e-12 -3.20263e-11 1.71268e-09) (-3.63134e-11 6.14548e-11 2.07577e-09) (8.91138e-12 -7.04173e-13 1.79308e-09) (5.6546e-12 1.32123e-11 1.4624e-09) (-8.43989e-12 8.14166e-12 1.47546e-09) (2.25099e-11 -2.74185e-11 1.75239e-09) (-7.29058e-12 6.82919e-12 1.97224e-09)
1900          (-1.64191e-11 -1.93709e-11 3.92879e-11) (-2.75208e-11 6.30196e-11 -2.92751e-10) (-3.72708e-13 -1.98027e-11 4.59777e-10) (-4.7281e-11 1.74407e-12 1.14065e-09) (1.79932e-11 9.50205e-12 1.77627e-09) (-1.6253e-11 1.31856e-11 2.2353e-09) (1.06373e-11 -4.76962e-12 1.98085e-09) (1.37107e-11 1.49813e-11 1.70409e-09) (-7.96508e-12 -6.55313e-13 1.30823e-09) (2.82143e-11 -1.51631e-11 9.29804e-10) (2.23292e-11 -2.20911e-11 6.83037e-10)
1950          (1.24404e-12 3.65496e-11 1.64635e-12) (-3.07621e-11 4.98935e-11 -6.54829e-10) (3.13231e-11 -3.70212e-12 -7.08041e-12) (4.28591e-14 -2.19517e-11 5.96036e-10) (2.74127e-11 -1.47507e-11 1.1333e-09) (2.00233e-11 -4.08437e-11 1.53029e-09) (-1.42717e-11 -7.90572e-12 1.53013e-09) (-6.73589e-12 -1.51299e-12 1.12174e-09) (8.91223e-12 4.75652e-13 8.37604e-10) (-1.25325e-11 2.69827e-11 5.1207e-10) (-2.07209e-11 1.40384e-11 9.22135e-11)
2000          (1.67751e-11 1.55715e-11 -4.23492e-11) (-4.94012e-11 -3.51196e-11 -4.11963e-10) (3.2423e-11 -3.35343e-11 2.8688e-11) (-3.05199e-11 2.83445e-11 7.95e-10) (-3.67327e-11 5.04654e-11 1.58229e-09) (3.79291e-11 1.58152e-11 2.07687e-09) (-5.32292e-12 1.12473e-11 1.67705e-09) (-4.04618e-11 -1.49658e-11 1.58537e-09) (6.03996e-12 4.07741e-12 1.91324e-09) (-3.27226e-13 7.24283e-12 2.17714e-09) (-1.27629e-12 3.23534e-13 2.24132e-09)
2050          (1.31973e-11 -5.02451e-11 1.01603e-10) (4.79583e-12 -1.93488e-11 -6.05997e-10) (-6.36754e-15 3.19716e-11 8.58676e-11) (-5.95037e-11 -4.83073e-11 1.04838e-09) (1.6825e-11 -2.98154e-11 1.95912e-09) (3.09687e-11 -1.05505e-12 2.85439e-09) (1.35686e-11 -1.39251e-11 3.12023e-09) (8.66598e-12 1.95491e-12 3.41475e-09) (-8.10872e-12 3.23817e-13 3.64406e-09) (5.96217e-12 -1.75516e-12 3.98034e-09) (-6.40964e-12 1.58224e-12 4.10143e-09)
2100          (1.4439e-11 -1.42462e-11 5.33972e-12) (-5.36885e-11 -2.37641e-11 -3.32699e-10) (1.83659e-11 -3.20201e-11 4.03383e-10) (-3.13359e-12 5.19906e-12 1.22142e-09) (1.93513e-12 5.16713e-11 1.44064e-09) (1.97847e-11 -3.29149e-11 2.52841e-09) (-3.39797e-11 4.57618e-12 2.68856e-09) (-7.56983e-12 -1.08258e-12 2.9911e-09) (2.16662e-11 -1.3112e-11 3.27718e-09) (7.74659e-12 5.47977e-12 3.72959e-09) (-2.06445e-12 -6.8247e-12 3.93571e-09)
2150          (5.75513e-12 5.14668e-11 4.99182e-12) (-7.88563e-13 -1.66722e-11 -3.38609e-10) (-1.19916e-11 7.22627e-11 3.33195e-10) (-6.83835e-12 5.178e-11 7.62497e-10) (-3.12961e-11 3.7127e-11 1.5366e-09) (3.45498e-11 -3.39536e-11 2.54998e-09) (1.21619e-12 6.7262e-13 2.89809e-09) (-1.08984e-12 1.43889e-11 3.23744e-09) (-6.90111e-12 -8.24536e-13 3.69202e-09) (1.22961e-11 -1.36198e-11 4.06272e-09) (-1.92067e-11 4.69257e-12 4.21004e-09)
2200          (1.82403e-11 -3.07489e-11 -3.36756e-11) (6.2382e-12 1.72976e-11 -3.19239e-10) (-1.30855e-11 -5.1651e-12 3.82459e-10) (-1.66399e-11 -5.14783e-11 9.99318e-10) (-3.84084e-11 -1.73547e-11 1.62862e-09) (-4.85194e-11 3.66832e-11 3.25757e-09) (8.15976e-12 -8.03235e-12 3.30271e-09) (-2.69612e-11 4.76456e-12 3.61384e-09) (-1.28276e-11 3.55269e-11 3.92487e-09) (8.35066e-14 -2.23257e-11 4.31053e-09) (-1.44919e-11 -8.78566e-12 4.45667e-09)
2250          (-1.69544e-11 -3.23299e-11 2.84998e-12) (-5.06692e-11 2.10299e-11 -1.60406e-10) (-8.284e-12 2.21575e-11 4.34321e-10) (4.28927e-11 -9.7782e-12 1.06676e-09) (8.06892e-12 2.89988e-11 1.65109e-09) (-2.76625e-11 -2.06712e-11 2.76959e-09) (6.26499e-12 -6.8945e-12 2.88501e-09) (6.83409e-12 -1.76002e-13 3.33362e-09) (-2.53713e-12 1.69924e-12 3.57549e-09) (1.21947e-12 -2.48591e-11 4.02871e-09) (1.33549e-11 1.21648e-11 4.16375e-09)
2300          (-1.94617e-12 -6.96597e-13 6.77884e-11) (-1.68722e-11 -5.32161e-11 -3.44736e-10) (6.24997e-11 -4.33376e-12 5.16023e-10) (7.97692e-11 2.74497e-12 9.83447e-10) (1.03907e-11 4.58036e-12 1.70585e-09) (1.40355e-11 -4.8749e-11 2.98078e-09) (1.30133e-11 -7.11944e-12 3.19736e-09) (-5.90381e-12 7.64087e-12 3.51344e-09) (-7.16803e-12 -3.42592e-13 3.79273e-09) (-3.54851e-11 -6.65804e-12 4.09233e-09) (-8.98948e-12 -1.50058e-11 4.30079e-09)
2350          (3.79866e-11 -3.28758e-12 -3.76182e-11) (5.85756e-12 -8.28627e-11 -2.96857e-10) (-6.58304e-12 3.22725e-11 4.0864e-10) (1.89179e-11 1.13508e-11 1.10356e-09) (4.02464e-12 -2.82614e-11 1.6705e-09) (1.693e-11 3.85168e-11 2.6637e-09) (1.86272e-11 7.30219e-12 2.97012e-09) (-2.64764e-11 1.22433e-11 3.28103e-09) (1.29486e-12 9.09936e-13 3.59823e-09) (2.92506e-14 1.20265e-11 3.99444e-09) (1.51852e-11 8.6502e-12 4.1523e-09)
2400          (-1.37357e-11 1.12876e-10 3.49428e-11) (-3.45621e-11 -1.87441e-12 -2.52322e-10) (1.18365e-11 3.94902e-11 1.00701e-10) (7.2705e-11 3.93224e-11 7.44815e-10) (-4.2195e-11 8.23311e-11 1.33286e-09) (4.2633e-12 -1.15656e-11 1.63822e-09) (1.0708e-11 -8.0199e-12 1.45544e-09) (6.85265e-12 4.97656e-13 1.02906e-09) (-7.13714e-12 -1.11258e-12 1.03763e-09) (-2.28951e-11 -1.96593e-11 1.34538e-09) (1.45366e-12 1.40949e-11 1.55359e-09)
2450          (-3.19147e-12 2.64854e-11 -3.27113e-11) (-4.81235e-11 -1.40552e-11 -2.83371e-10) (-1.51414e-11 3.6928e-11 3.39014e-10) (-1.60967e-11 -1.31293e-11 1.09871e-09) (1.65448e-11 -7.42985e-11 1.71557e-09) (1.68144e-11 -6.72334e-11 2.0409e-09) (-7.30093e-12 -2.72323e-11 1.80471e-09) (2.18519e-11 6.92793e-13 1.57133e-09) (6.34776e-12 1.27955e-11 1.80001e-09) (2.76469e-11 3.43708e-11 2.0702e-09) (6.8157e-13 2.35814e-11 2.18399e-09)
2500          (1.37772e-11 3.71567e-11 2.42118e-12) (1.49775e-11 2.98764e-11 -2.40697e-10) (-1.41681e-11 -1.48277e-11 2.96328e-10) (-4.20979e-11 -6.53069e-11 9.26888e-10) (-1.32088e-11 6.99641e-11 1.49212e-09) (5.48243e-12 3.54888e-11 2.18549e-09) (3.50114e-11 2.81988e-11 2.08716e-09) (1.48497e-11 6.96724e-12 1.75544e-09) (-1.673e-13 -1.56105e-12 1.90884e-09) (6.39251e-12 1.25758e-11 2.26904e-09) (2.11324e-11 7.29464e-12 2.4668e-09)
2550          (-3.33214e-11 2.01728e-11 -2.41657e-11) (-2.92822e-11 1.9889e-11 -5.83258e-10) (4.03363e-12 3.52819e-11 3.06159e-10) (-6.846e-11 4.08018e-11 9.85579e-10) (-5.48917e-11 2.34818e-11 1.89516e-09) (-8.45583e-11 -1.33546e-12 2.82999e-09) (-1.66415e-12 3.43784e-11 2.65793e-09) (-7.25732e-12 -3.24878e-13 2.32993e-09) (-1.28778e-11 8.65351e-12 1.95825e-09) (-1.57867e-12 2.62871e-11 1.65454e-09) (1.40369e-11 2.81643e-11 1.31914e-09)
2600          (-3.38002e-13 1.93046e-11 3.19757e-12) (-2.71051e-11 6.49769e-11 -4.80199e-10) (1.94086e-11 1.57309e-11 2.64479e-10) (-5.08711e-11 -3.64453e-11 1.19722e-09) (4.57086e-11 3.73991e-11 1.88582e-09) (-3.53665e-11 1.87093e-11 2.32051e-09) (8.58958e-16 -5.33869e-12 2.1342e-09) (-1.47395e-12 1.26559e-11 1.91373e-09) (-1.46757e-11 1.36352e-11 1.55466e-09) (7.65682e-12 2.9992e-11 1.54397e-09) (-2.28989e-13 -7.33532e-12 1.63171e-09)
2650          (-1.5709e-11 4.12591e-11 8.33874e-11) (1.67615e-12 1.54669e-11 -8.17815e-10) (1.07808e-11 3.73809e-11 -3.23727e-11) (3.52509e-11 1.33697e-11 1.9958e-10) (-3.6864e-11 -1.00392e-11 1.10389e-09) (3.42601e-11 -1.24408e-11 8.36483e-10) (3.25024e-12 -5.621e-12 6.30867e-10) (8.87177e-12 9.69499e-13 3.60856e-10) (1.71433e-12 -7.76943e-13 5.52679e-11) (-7.97577e-12 -7.09558e-13 1.9159e-10) (-1.53396e-11 -3.7063e-12 2.46199e-10)
2700          (1.01063e-11 1.49417e-11 -3.35054e-11) (3.12716e-11 -5.0842e-11 -3.9578e-10) (-1.23823e-11 -1.86877e-11 1.44999e-10) (2.63441e-11 -3.0539e-13 7.6443e-10) (2.03198e-12 1.65269e-11 1.29633e-09) (1.83665e-12 -6.89988e-11 1.72512e-09) (1.17022e-11 1.88205e-11 1.45402e-09) (2.86542e-11 7.1527e-12 1.19492e-09) (-1.83661e-11 -2.14109e-11 9.28919e-10) (-2.09008e-11 -3.4571e-13 1.1437e-09) (-7.02467e-12 1.17107e-11 1.32626e-09)
2750          (-3.75833e-11 -1.44873e-11 -6.12486e-12) (-3.18646e-11 9.40002e-12 -2.40123e-10) (-8.94913e-12 5.06931e-12 1.99031e-10) (-9.62321e-13 6.54296e-11 8.48165e-10) (1.56368e-11 -2.95827e-11 1.62068e-09) (-1.35562e-11 -1.63928e-11 2.01599e-09) (1.05228e-11 -1.31722e-12 1.82538e-09) (2.11419e-11 -9.93199e-14 1.45946e-09) (7.05273e-12 -9.66575e-12 1.23717e-09) (1.8105e-12 2.64668e-11 1.5556e-09) (-1.63214e-11 8.0932e-12 1.80282e-09)
2800          (2.51563e-11 -4.83633e-11 3.51486e-11) (6.39752e-11 3.60977e-11 -3.73989e-10) (-9.59653e-13 -3.75365e-11 5.51734e-10) (-1.92101e-11 2.26376e-11 9.10726e-10) (-3.95749e-11 4.79616e-11 1.42964e-09) (8.83729e-11 -2.98129e-11 1.90097e-09) (-1.14113e-11 3.11201e-12 1.69457e-09) (-6.38788e-12 -3.35342e-12 1.47571e-09) (4.99999e-12 2.19157e-11 1.49097e-09) (1.39891e-11 -1.95108e-11 1.82804e-09) (1.34463e-11 -1.1936e-12 2.10659e-09)
2850          (-4.59518e-11 -5.26312e-11 1.59333e-10) (4.78896e-11 -1.59584e-11 -2.96578e-10) (1.60709e-11 -4.75594e-11 3.26528e-10) (4.60784e-11 -1.56627e-11 1.04509e-09) (3.15517e-11 -3.77375e-11 1.81954e-09) (3.71546e-13 -6.00565e-12 3.33717e-09) (-8.65904e-13 6.62088e-12 3.46386e-09) (-3.96335e-11 -9.49372e-12 3.81949e-09) (-6.4464e-13 -6.39514e-13 4.13978e-09) (6.26041e-13 2.58332e-11 4.40432e-09) (-6.4463e-12 1.45205e-11 4.68396e-09)
2900          (3.65801e-11 -3.27148e-11 -2.65658e-11) (-1.55574e-11 5.4358e-11 -5.46128e-10) (-1.99006e-11 -1.05483e-10 4.50951e-12) (-1.52046e-11 1.2879e-11 7.72976e-10) (4.17568e-11 -8.55143e-11 1.10501e-09) (-1.7949e-11 -1.43065e-11 2.23255e-09) (1.8167e-12 1.36068e-13 2.54702e-09) (4.94413e-12 2.82863e-12 2.81803e-09) (1.26299e-11 1.26445e-11 3.28921e-09) (2.90304e-12 -5.81944e-12 3.59405e-09) (-6.71336e-12 1.3879e-11 3.6963e-09)
2950          (2.00416e-11 -1.03467e-11 -3.32343e-11) (-5.38669e-11 2.98145e-11 -3.54624e-10) (-1.0945e-11 -6.92265e-11 4.5807e-10) (2.66644e-12 -2.96881e-12 1.08147e-09) (-7.25512e-11 2.75227e-11 1.75932e-09) (-4.74641e-11 -3.86036e-11 2.95937e-09) (1.58416e-12 2.17886e-11 3.25163e-09) (-7.21834e-12 1.35456e-11 3.51265e-09) (-5.52911e-12 8.08144e-12 3.76866e-09) (2.07042e-11 1.25593e-12 4.11992e-09) (7.09933e-12 -5.93005e-12 4.32898e-09)
3000          (5.11653e-11 -3.71848e-12 -2.99122e-11) (1.02783e-11 1.08792e-11 -6.30077e-10) (-3.09657e-11 2.14513e-11 2.96345e-10) (-2.74628e-11 2.17017e-12 9.94603e-10) (-1.53169e-11 -3.2268e-11 1.77974e-09) (1.38999e-11 -1.84138e-11 2.59535e-09) (5.84763e-12 -1.6409e-11 2.95812e-09) (3.35693e-11 -1.508e-11 3.31756e-09) (-1.3646e-11 3.59601e-13 3.68778e-09) (-2.66336e-14 1.73962e-11 4.01595e-09) (-1.25568e-12 -6.96077e-13 4.20734e-09)
3050          (2.86197e-12 7.17434e-11 -1.28442e-10) (-1.17423e-11 2.40235e-11 -1.73096e-10) (-7.07696e-11 7.19592e-13 4.32457e-10) (1.49638e-11 -2.86739e-11 1.06982e-09) (-9.97269e-13 -1.11051e-11 1.70931e-09) (1.76124e-11 1.20521e-11 2.80546e-09) (-2.18186e-11 -2.13688e-11 3.05034e-09) (-9.88272e-12 -8.52782e-12 3.41595e-09) (5.33886e-12 6.70859e-14 3.76533e-09) (-1.4549e-11 9.07715e-12 4.12295e-09) (1.39209e-11 -1.09633e-11 4.21025e-09)
3100          (7.7211e-11 -2.68596e-11 -1.63767e-13) (2.75769e-11 3.47106e-11 -2.53855e-10) (-2.98472e-11 6.99194e-13 3.29691e-10) (4.68546e-11 1.66573e-11 1.2256e-09) (-1.10244e-12 3.60233e-11 1.98966e-09) (1.31362e-12 -2.90791e-11 2.28483e-09) (-5.73212e-12 2.00093e-13 2.19418e-09) (-8.46855e-12 -3.28022e-12 1.85533e-09) (1.41251e-11 8.00123e-13 2.19812e-09) (4.927e-12 1.17018e-11 2.47976e-09) (-6.86303e-12 3.61278e-11 2.71794e-09)
3150          (-2.03555e-11 1.80264e-11 -4.93343e-11) (-5.48798e-11 3.55034e-12 -8.83775e-11) (-1.51668e-11 -2.47147e-11 6.65869e-10) (3.94976e-11 5.73801e-12 1.31327e-09) (1.53803e-11 3.39397e-11 1.92414e-09) (3.12312e-11 1.65295e-11 2.37067e-09) (1.45594e-11 1.26414e-12 2.37372e-09) (2.1781e-11 1.28768e-11 2.03238e-09) (3.2381e-12 -2.09291e-11 1.76548e-09) (-1.08329e-12 -1.4351e-11 1.81727e-09) (-1.51489e-11 -1.19525e-11 1.90104e-09)
3200          (-2.34439e-11 -2.14778e-11 1.2174e-10) (-8.42861e-11 -3.85408e-11 -2.4842e-10) (-4.67424e-11 -3.93638e-11 3.45929e-10) (-3.74506e-11 -3.50192e-11 1.13787e-09) (-2.25596e-11 -3.04693e-11 1.6309e-09) (-3.11006e-11 -1.36809e-11 2.68669e-09) (-1.3241e-11 1.99332e-11 2.50499e-09) (-7.2053e-12 2.01179e-13 2.16789e-09) (-9.48288e-13 1.00249e-11 1.85794e-09) (-5.76864e-12 1.42675e-11 1.44413e-09) (-8.70327e-12 6.90123e-12 1.09216e-09)
3250          (-1.63635e-11 3.13916e-11 7.79832e-11) (6.41838e-11 -4.05629e-12 -1.87137e-10) (-5.05255e-11 4.78177e-11 3.31417e-10) (3.81015e-11 -5.15478e-13 6.7356e-10) (1.82337e-11 -2.97336e-11 1.21196e-09) (-4.85909e-11 -3.40074e-11 1.40148e-09) (-2.52968e-12 1.42198e-11 1.27182e-09) (-7.68827e-12 9.48852e-12 9.32329e-10) (1.1845e-11 -2.19063e-12 6.40389e-10) (8.07597e-13 4.2662e-13 4.90851e-10) (-9.04432e-12 1.2956e-11 6.15116e-10)
3300          (7.10451e-12 4.79575e-12 -3.65807e-11) (-4.26106e-12 4.33466e-12 -4.27466e-10) (1.82331e-11 -1.14105e-11 3.64015e-10) (-1.76141e-11 5.34971e-12 1.03052e-09) (8.64602e-11 8.48093e-11 1.52686e-09) (1.43421e-13 1.45088e-11 2.64411e-09) (-3.69653e-11 -1.49799e-11 2.95685e-09) (1.85826e-11 2.39047e-11 3.23282e-09) (-4.94203e-12 1.14427e-11 3.54749e-09) (6.29544e-13 1.4639e-11 3.85467e-09) (7.15644e-12 -5.24162e-12 4.0678e-09)