# Probe 0 (0.0015 0.0015 0)
# Probe 1 (0.0015 0.0015 0.002)
# Probe 2 (0.0015 0.0015 0.004)
# Probe 3 (0.0015 0.0015 0.006)
# Probe 4 (0.0015 0.0015 0.008)
# Probe 5 (0.0015 0.0015 0.01)
# Probe 6 (0.0015 0.0015 0.012)
# Probe 7 (0.0015 0.0015 0.014)
# Probe 8 (0.0015 0.0015 0.016)
# Probe 9 (0.0015 0.0015 0.018)
# Probe 10 (0.0015 0.0015 0.02)
# Time        0             1             2             3             4             5             6             7             8             9             10           
50            0.000739207   0.0005406     0.000532217   0.000566843   0.000634007   0.00073482    0.00051971    0.0005904     0.000574469   0.00045671    0.000611711  
100           0.000739207   0.0005406     0.000532217   0.000566843   0.000634007   0.00073482    0.00051971    0.0005904     0.000574469   0.00045671    0.000611711  
150           0.000739207   0.0005406     0.000532217   0.000566843   0.000634007   0.00073482    0.00051971    0.0005904     0.000574469   0.00045671    0.000611711  
200           0.000739207   0.0005406     0.000532217   0.000566843   0.000634007   0.00073482    0.00051971    0.0005904     0.000574469   0.00045671    0.000611711  
250           0.000739207   0.0005406     0.000532217   0.000566843   0.000634007   0.00073482    0.00051971    0.0005904     0.000574469   0.00045671    0.000611711  
300           0.000739207   0.0005406     0.000532217   0.000566843   0.000634007   0.00073482    0.00051971    0.0005904     0.000574469   0.00045671    0.000611711  
350           0.000739207   0.0005406     0.000532217   0.000566843   0.000634007   0.00073482    0.00051971    0.0005904     0.000574469   0.00045671    0.000611711  
400           0.000739207   0.0005406     0.000532217   0.000566843   0.000634007   0.00073482    0.00051971    0.0005904     0.000574469   0.00045671    0.000611711  
450           0.000739207   0.0005406     0.000532217   0.000566843   0.000634007   0.00073482    0.00051971    0.0005904     0.000574469   0.00045671    0.000611711  
500           0.000739207   0.0005406     0.000532217   0.000566843   0.000634007   0.00073482    0.00051971    0.0005904     0.000574469   0.00045671    0.000611711  
550           0.000739207   0.0005406     0.000532217   0.000566843   0.000634007   0.00073482    0.00051971    0.0005904     0.000574469   0.00045671    0.000611711  
600           0.000739207   0.0005406     0.000532217   0.000566843   0.000634007   0.00073482    0.00051971    0.0005904     0.000574469   0.00045671    0.000611711  
650           0.000739207   0.0005406     0.000532217   0.000566843   0.000634007   0.00073482    0.00051971    0.0005904     0.000574469   0.00045671    0.000611711  
700           0.000739207   0.0005406     0.000532217   0.000566843   0.000634007   0.00073482    0.00051971    0.0005904     0.000574469   0.00045671    0.000611711  
750           0.000739207   0.0005406     0.000532217   0.000566843   0.000634007   0.00073482    0.00051971    0.0005904     0.000574469   0.00045671    0.000611711  
800           0.000739207   0.0005406     0.000532217   0.000566843   0.000634007   0.00073482    0.00051971    0.0005904     0.000574469   0.00045671    0.000611711  
850           0.000739207   0.0005406     0.000532217   0.000566843   0.000634007   0.00073482    0.00051971    0.0005904     0.000574469   0.00045671    0.000611711  
900           0.000739207   0.0005406     0.000532217   0.000566843   0.000634007   0.00073482    0.00051971    0.0005904     0.000574469   0.00045671    0.000611711  
950           0.000739207   0.0005406     0.000532217   0.000566843   0.000634007   0.00073482    0.00051971    0.0005904     0.000574469   0.00045671    0.000611711  
1000          0.000739207   0.0005406     0.000532217   0.000566843   0.000634007   0.00073482    0.00051971    0.0005904     0.000574469   0.00045671    0.000611711  
1050          0.000739207   0.0005406     0.000532217   0.000566843   0.000634007   0.00073482    0.00051971    0.0005904     0.000574469   0.00045671    0.000611711  
1100          0.000739207   0.0005406     0.000532217   0.000566843   0.000634007   0.00073482    0.00051971    0.0005904     0.000574469   0.00045671    0.000611711  
1150          0.000739207   0.0005406     0.000532217   0.000566843   0.000634007   0.00073482    0.00051971    0.0005904     0.000574469   0.00045671    0.000611711  
1200          0.000739207   0.0005406     0.000532217   0.000566843   0.000634007   0.00073482    0.00051971    0.0005904     0.000574469   0.00045671    0.000611711  
1250          0.000739207   0.0005406     0.000532217   0.000566843   0.000634007   0.00073482    0.00051971    0.0005904     0.000574469   0.00045671    0.000611711  
1300          0.000739207   0.0005406     0.000532217   0.000566843   0.000634007   0.00073482    0.00051971    0.0005904     0.000574469   0.00045671    0.000611711  
1350          0.000739207   0.0005406     0.000532217   0.000566843   0.000634007   0.00073482    0.00051971    0.0005904     0.000574469   0.00045671    0.000611711  
1400          0.000739207   0.0005406     0.000532217   0.000566843   0.000634007   0.00073482    0.00051971    0.0005904     0.000574469   0.00045671    0.000611711  
1450          0.000739207   0.0005406     0.000532217   0.000566843   0.000634007   0.00073482    0.00051971    0.0005904     0.000574469   0.00045671    0.000611711  
1500          0.000739207   0.0005406     0.000532217   0.000566843   0.000634007   0.00073482    0.00051971    0.0005904     0.000574469   0.00045671    0.000611711  
1550          0.000739207   0.0005406     0.000532217   0.000566843   0.000634007   0.00073482    0.00051971    0.0005904     0.000574469   0.00045671    0.000611711  
1600          0.000739207   0.0005406     0.000532217   0.000566843   0.000634007   0.00073482    0.00051971    0.0005904     0.000574469   0.00045671    0.000611711  
1650          0.000739207   0.0005406     0.000532217   0.000566843   0.000634007   0.00073482    0.00051971    0.0005904     0.000574469   0.00045671    0.000611711  
1700          0.000739207   0.0005406     0.000532217   0.000566843   0.000634007   0.00073482    0.00051971    0.0005904     0.000574469   0.00045671    0.000611711  
1750          0.000739207   0.0005406     0.000532217   0.000566843   0.000634007   0.00073482    0.00051971    0.0005904     0.000574469   0.00045671    0.000611711  
1800          0.000739207   0.0005406     0.000532217   0.000566843   0.000634007   0.00073482    0.00051971    0.0005904     0.000574469   0.00045671    0.000611711  
1850          0.000739207   0.0005406     0.000532217   0.000566843   0.000634007   0.00073482    0.00051971    0.0005904     0.000574469   0.00045671    0.000611711  
1900          0.000739207   0.0005406     0.000532217   0.000566843   0.000634007   0.00073482    0.00051971    0.0005904     0.000574469   0.00045671    0.000611711  
1950          0.000739207   0.0005406     0.000532217   0.000566843   0.000634007   0.00073482    0.00051971    0.0005904     0.000574469   0.00045671    0.000611711  
2000          0.000739207   0.0005406     0.000532217   0.000566843   0.000634007   0.00073482    0.00051971    0.0005904     0.000574469   0.00045671    0.000611711  
2050          0.000739207   0.0005406     0.000532217   0.000566843   0.000634007   0.00073482    0.00051971    0.0005904     0.000574469   0.00045671    0.000611711  
2100          0.000739207   0.0005406     0.000532217   0.000566843   0.000634007   0.00073482    0.00051971    0.0005904     0.000574469   0.00045671    0.000611711  
2150          0.000739207   0.0005406     0.000532217   0.000566843   0.000634007   0.00073482    0.00051971    0.0005904     0.000574469   0.00045671    0.000611711  
2200          0.000739207   0.0005406     0.000532217   0.000566843   0.000634007   0.00073482    0.00051971    0.0005904     0.000574469   0.00045671    0.000611711  
2250          0.000739207   0.0005406     0.000532217   0.000566843   0.000634007   0.00073482    0.00051971    0.0005904     0.000574469   0.00045671    0.000611711  
2300          0.000739207   0.0005406     0.000532217   0.000566843   0.000634007   0.00073482    0.00051971    0.0005904     0.000574469   0.00045671    0.000611711  
2350          0.000739207   0.0005406     0.000532217   0.000566843   0.000634007   0.00073482    0.00051971    0.0005904     0.000574469   0.00045671    0.000611711  
2400          0.000739207   0.0005406     0.000532217   0.000566843   0.000634007   0.00073482    0.00051971    0.0005904     0.000574469   0.00045671    0.000611711  
2450          0.000739207   0.0005406     0.000532217   0.000566843   0.000634007   0.00073482    0.00051971    0.0005904     0.000574469   0.00045671    0.000611711  
2500          0.000739207   0.0005406     0.000532217   0.000566843   0.000634007   0.00073482    0.00051971    0.0005904     0.000574469   0.00045671    0.000611711  
2550          0.000739207   0.0005406     0.000532217   0.000566843   0.000634007   0.00073482    0.00051971    0.0005904     0.000574469   0.00045671    0.000611711  
2600          0.000739207   0.0005406     0.000532217   0.000566843   0.000634007   0.00073482    0.00051971    0.0005904     0.000574469   0.00045671    0.000611711  
2650          0.000739207   0.0005406     0.000532217   0.000566843   0.000634007   0.00073482    0.00051971    0.0005904     0.000574469   0.00045671    0.000611711  
2700          0.000739207   0.0005406     0.000532217   0.000566843   0.000634007   0.00073482    0.00051971    0.0005904     0.000574469   0.00045671    0.000611711  
2750          0.000739207   0.0005406     0.000532217   0.000566843   0.000634007   0.00073482    0.00051971    0.0005904     0.000574469   0.00045671    0.000611711  
2800          0.000739207   0.0005406     0.000532217   0.000566843   0.000634007   0.00073482    0.00051971    0.0005904     0.000574469   0.00045671    0.000611711  
2850          0.000739207   0.0005406     0.000532217   0.000566843   0.000634007   0.00073482    0.00051971    0.0005904     0.000574469   0.00045671    0.000611711  
2900          0.000739207   0.0005406     0.000532217   0.000566843   0.000634007   0.00073482    0.00051971    0.0005904     0.000574469   0.00045671    0.000611711  
2950          0.000739207   0.0005406     0.000532217   0.000566843   0.000634007   0.00073482    0.00051971    0.0005904     0.000574469   0.00045671    0.000611711  
3000          0.000739207   0.0005406     0.000532217   0.000566843   0.000634007   0.00073482    0.00051971    0.0005904     0.000574469   0.00045671    0.000611711  
3050          0.000739207   0.0005406     0.000532217   0.000566843   0.000634007   0.00073482    0.00051971    0.0005904     0.000574469   0.00045671    0.000611711  
3100          0.000739207   0.0005406     0.000532217   0.000566843   0.000634007   0.00073482    0.00051971    0.0005904     0.000574469   0.00045671    0.000611711  
3150          0.000739207   0.0005406     0.000532217   0.000566843   0.000634007   0.00073482    0.00051971    0.0005904     0.000574469   0.00045671    0.000611711  
3200          0.000739207   0.0005406     0.000532217   0.000566843   0.000634007   0.00073482    0.00051971    0.0005904     0.000574469   0.00045671    0.000611711  
3250          0.000739207   0.0005406     0.000532217   0.000566843   0.000634007   0.00073482    0.00051971    0.0005904     0.000574469   0.00045671    0.000611711  
3300          0.000739207   0.0005406     0.000532217   0.000566843   0.000634007   0.00073482    0.00051971    0.0005904     0.000574469   0.00045671    0.000611711  
3350          0.000739207   0.0005406     0.000532217   0.000566843   0.000634007   0.00073482    0.00051971    0.0005904     0.000574469   0.00045671    0.000611711  
3400          0.000739207   0.0005406     0.000532217   0.000566843   0.000634007   0.00073482    0.00051971    0.0005904     0.000574469   0.00045671    0.000611711  
3450          0.000739207   0.0005406     0.000532217   0.000566843   0.000634007   0.00073482    0.00051971    0.0005904     0.000574469   0.00045671    0.000611711  
3500          0.000739207   0.0005406     0.000532217   0.000566843   0.000634007   0.00073482    0.00051971    0.0005904     0.000574469   0.00045671    0.000611711  
3550          0.000739207   0.0005406     0.000532217   0.000566843   0.000634007   0.00073482    0.00051971    0.0005904     0.000574469   0.00045671    0.000611711  
3600          0.000739207   0.0005406     0.000532217   0.000566843   0.000634007   0.00073482    0.00051971    0.0005904     0.000574469   0.00045671    0.000611711  
3650          0.000739207   0.0005406     0.000532217   0.000566843   0.000634007   0.00073482    0.00051971    0.0005904     0.000574469   0.00045671    0.000611711  
3700          0.000739207   0.0005406     0.000532217   0.000566843   0.000634007   0.00073482    0.00051971    0.0005904     0.000574469   0.00045671    0.000611711  
3750          0.000739207   0.0005406     0.000532217   0.000566843   0.000634007   0.00073482    0.00051971    0.0005904     0.000574469   0.00045671    0.000611711  
3800          0.000739207   0.0005406     0.000532217   0.000566843   0.000634007   0.00073482    0.00051971    0.0005904     0.000574469   0.00045671    0.000611711  
3850          0.000739207   0.0005406     0.000532217   0.000566843   0.000634007   0.00073482    0.00051971    0.0005904     0.000574469   0.00045671    0.000611711  
3900          0.000739207   0.0005406     0.000532217   0.000566843   0.000634007   0.00073482    0.00051971    0.0005904     0.000574469   0.00045671    0.000611711  
3950          0.000739207   0.0005406     0.000532217   0.000566843   0.000634007   0.00073482    0.00051971    0.0005904     0.000574469   0.00045671    0.000611711  
4000          0.000739207   0.0005406     0.000532217   0.000566843   0.000634007   0.00073482    0.00051971    0.0005904     0.000574469   0.00045671    0.000611711  
4050          0.000739207   0.0005406     0.000532217   0.000566843   0.000634007   0.00073482    0.00051971    0.0005904     0.000574469   0.00045671    0.000611711  
4100          0.000739207   0.0005406     0.000532217   0.000566843   0.000634007   0.00073482    0.00051971    0.0005904     0.000574469   0.00045671    0.000611711  
4150          0.000739207   0.0005406     0.000532217   0.000566843   0.000634007   0.00073482    0.00051971    0.0005904     0.000574469   0.00045671    0.000611711  
4200          0.000739207   0.0005406     0.000532217   0.000566843   0.000634007   0.00073482    0.00051971    0.0005904     0.000574469   0.00045671    0.000611711  
4250          0.000739207   0.0005406     0.000532217   0.000566843   0.000634007   0.00073482    0.00051971    0.0005904     0.000574469   0.00045671    0.000611711  
4300          0.000739207   0.0005406     0.000532217   0.000566843   0.000634007   0.00073482    0.00051971    0.0005904     0.000574469   0.00045671    0.000611711  
4350          0.000739207   0.0005406     0.000532217   0.000566843   0.000634007   0.00073482    0.00051971    0.0005904     0.000574469   0.00045671    0.000611711  
4400          0.000739207   0.0005406     0.000532217   0.000566843   0.000634007   0.00073482    0.00051971    0.0005904     0.000574469   0.00045671    0.000611711  
4450          0.000739207   0.0005406     0.000532217   0.000566843   0.000634007   0.00073482    0.00051971    0.0005904     0.000574469   0.00045671    0.000611711  
4500          0.000739207   0.0005406     0.000532217   0.000566843   0.000634007   0.00073482    0.00051971    0.0005904     0.000574469   0.00045671    0.000611711  
4550          0.000739207   0.0005406     0.000532217   0.000566843   0.000634007   0.00073482    0.00051971    0.0005904     0.000574469   0.00045671    0.000611711  
4600          0.000739207   0.0005406     0.000532217   0.000566843   0.000634007   0.00073482    0.00051971    0.0005904     0.000574469   0.00045671    0.000611711  
4650          0.000739207   0.0005406     0.000532217   0.000566843   0.000634007   0.00073482    0.00051971    0.0005904     0.000574469   0.00045671    0.000611711  
4700          0.000739207   0.0005406     0.000532217   0.000566843   0.000634007   0.00073482    0.00051971    0.0005904     0.000574469   0.00045671    0.000611711  
4750          0.000739207   0.0005406     0.000532217   0.000566843   0.000634007   0.00073482    0.00051971    0.0005904     0.000574469   0.00045671    0.000611711  
4800          0.000739207   0.0005406     0.000532217   0.000566843   0.000634007   0.00073482    0.00051971    0.0005904     0.000574469   0.00045671    0.000611711  
4850          0.000739207   0.0005406     0.000532217   0.000566843   0.000634007   0.00073482    0.00051971    0.0005904     0.000574469   0.00045671    0.000611711  
4900          0.000739207   0.0005406     0.000532217   0.000566843   0.000634007   0.00073482    0.00051971    0.0005904     0.000574469   0.00045671    0.000611711  
4950          0.000739207   0.0005406     0.000532217   0.000566843   0.000634007   0.00073482    0.00051971    0.0005904     0.000574469   0.00045671    0.000611711  
5000          0.000739207   0.0005406     0.000532217   0.000566843   0.000634007   0.00073482    0.00051971    0.0005904     0.000574469   0.00045671    0.000611711  
