# Probe 0 (0.0015 0.0015 0)
# Probe 1 (0.0015 0.0015 0.002)
# Probe 2 (0.0015 0.0015 0.004)
# Probe 3 (0.0015 0.0015 0.006)
# Probe 4 (0.0015 0.0015 0.008)
# Probe 5 (0.0015 0.0015 0.01)
# Probe 6 (0.0015 0.0015 0.012)
# Probe 7 (0.0015 0.0015 0.014)
# Probe 8 (0.0015 0.0015 0.016)
# Probe 9 (0.0015 0.0015 0.018)
# Probe 10 (0.0015 0.0015 0.02)
# Time        0             1             2             3             4             5             6             7             8             9             10           
50            (-872.995 114.312 39479.6) (614.058 107.634 22362.4) (48.2007 -136.714 8472.54) (35.5947 -102.591 2422.68) (14.4789 16.9799 837.897) (3.40214 6.0319 221.609) (3.26582 -0.884118 61.4275) (2.97808 10.1385 -57.4887) (-3.18715 4.37062 -220.717) (21.4523 22.5957 -707.644) (-40.9336 -28.3665 -2246.22)
100           (-1228.97 399.426 30269.2) (37.3659 56.8455 25742.1) (60.4797 -127.453 13934.3) (56.7444 -168.81 4384.31) (29.334 31.5915 1596.27) (9.0313 8.33136 431.776) (6.3495 -0.412817 117.514) (3.34462 9.49384 -50.5006) (-3.40829 4.76254 -245.792) (22.7832 16.6603 -750.707) (-60.8475 -34.3765 -2153.65)
150           (-1255.33 473.738 24835) (-462.145 -27.9267 23850.7) (35.9766 122.752 18463.7) (77.9302 -220.501 6966.29) (48.5029 53.6771 2743.58) (17.5826 12.1424 763.482) (11.2665 0.410874 211.167) (3.94631 8.37944 -30.7634) (-3.57832 5.13828 -270.178) (24.0599 10.0535 -797.075) (-81.8052 -41.3447 -2049.12)
200           (-1245.38 514.848 21491.2) (-700.592 -60.7027 21499.4) (-70.2714 491.768 20180.8) (101.659 -216.874 9546.28) (65.6638 82.4561 4290) (29.3154 18.08 1246.3) (18.5361 1.76499 355.364) (4.87045 6.66819 7.27201) (-3.63909 5.47524 -290.797) (25.039 2.794 -841.239) (-100.309 -47.621 -1938.25)
250           (-1234.67 543.219 19213.2) (-857.204 -71.4255 19657.5) (-167.607 733.963 20048.7) (142.709 -163.305 11304.5) (68.0396 113.447 6127.45) (43.8649 26.9379 1907.53) (28.75 3.92113 566.719) (6.23208 4.19335 70.8759) (-3.53461 5.74115 -304.248) (25.5547 -5.01992 -878.774) (-114.81 -51.9472 -1825.97)
300           (-1225.4 563.963 17538.7) (-971.655 -77.0119 18229.8) (-219.578 879.771 19328.3) (186.059 -100.983 11973.1) (44.5168 139.883 7971.2) (59.4664 39.5898 2756.97) (42.4448 7.30982 865.442) (8.17596 0.788427 169.074) (-3.19607 5.90516 -306.703) (25.5247 -13.2794 -906.525) (-125.367 -54.1476 -1715.68)
350           (-1217.46 579.99 16238.6) (-1059.53 -80.439 17088.8) (-248.066 980.399 18520.4) (216.725 -46.5538 11931.2) (0.174564 156.722 9458.54) (72.187 56.7216 3763.16) (59.8723 12.548 1273.74) (10.881 -3.67966 312.91) (-2.54967 5.93243 -293.619) (24.9474 -21.8534 -922.105) (-132.693 -54.6786 -1609.12)
400           (-1210.68 592.841 15189.1) (-1129.85 -82.7294 16150.7) (-266.985 1057.14 17758.3) (239.295 1.70481 11599.2) (-48.9507 163.341 10386.1) (76.1612 79.0646 4831.88) (80.5079 20.2969 1810.29) (14.543 -9.1981 514.809) (-1.4969 5.79357 -259.357) (23.864 -30.6154 -923.324) (-137.572 -54.1137 -1506.37)
450           (-1204.87 603.447 14317.3) (-1187.95 -84.3728 15361.8) (-281.219 1118.83 17069) (258.01 44.3799 11182.9) (-93.5956 164.357 10810.7) (65.9263 108.481 5819.9) (102.652 30.721 2481.77) (19.3675 -15.425 787.094) (0.0459319 5.47207 -197.518) (22.3408 -39.4609 -908.133) (-140.636 -52.8605 -1406.13)
500           (-1199.75 612.455 13577.7) (-1237.01 -85.6016 14686.7) (-292.648 1169.88 16451.2) (273.99 81.6632 10755.4) (-133.199 164.38 10907.5) (40.4749 146.456 6598.72) (123.463 42.6654 3269.7) (25.4886 -21.5672 1139.42) (2.16546 4.96799 -100.549) (20.4359 -48.299 -873.992) (-142.293 -51.1064 -1305.9)
550           (-1195.22 620.197 12939.2) (-1279.2 -86.5638 14099.8) (-302.076 1213.2 15896.1) (287.87 114.508 10340.7) (-168.686 164.67 10824.2) (5.27192 189.463 7118.64) (139.709 53.3661 4120.83) (32.991 -26.0532 1575.92) (4.91512 4.32255 39.6545) (18.172 -57.1438 -817.892) (-142.825 -48.9191 -1202.29)
600           (-1191.19 626.979 12379.9) (-1316.07 -87.3209 13582.7) (-310.081 1250.64 15394.6) (300.131 143.769 9946.53) (-200.562 165.052 10649.1) (-31.544 230.27 7414.18) (149.34 59.6792 4953.21) (41.8183 -26.5128 2089.3) (8.31008 3.63517 231.663) (15.5403 -66.1617 -736.114) (-142.405 -46.2712 -1091.06)
650           (-1187.56 632.988 11883.3) (-1348.73 -87.9359 13121.4) (-316.992 1283.53 14938.2) (311.09 170.098 9574.54) (-229.256 165.362 10428.2) (-64.6753 264.6 7552.56) (152.717 60.3741 5687.3) (51.8598 -19.949 2656.17) (12.2776 3.06278 482.353) (12.4859 -75.6301 -624.361) (-141.089 -43.0586 -967.223)
700           (-1184.25 638.376 11437.4) (-1378 -88.4445 12705.4) (-323.055 1312.8 14519.6) (320.992 194.018 9224.17) (-255.287 165.563 10185) (-93.0229 292.64 7592.34) (151.739 56.4456 6276.76) (63.0665 -3.5346 3237.18) (16.6648 2.80547 795.429) (8.92421 -86.0233 -478.028) (-138.895 -39.1561 -825.153)
750           (-1181.21 643.269 11032.7) (-1404.52 -88.866 12326.5) (-328.464 1339.16 14133.3) (330.038 215.951 8893.76) (-279.143 165.663 9931.85) (-117.393 316.16 7572.11) (148.362 49.8568 6717.54) (75.4431 24.3588 3784.54) (21.2536 3.05087 1168.93) (4.75618 -98.0441 -292.863) (-135.84 -34.4446 -658.838)
800           (-1178.41 647.736 10662.1) (-1428.78 -89.2305 11978.3) (-333.316 1363.17 13774) (338.346 236.207 8581.64) (-301.151 165.71 9675.84) (-138.728 336.557 7513.6) (143.968 42.4102 7032.73) (88.6926 63.2823 4257.19) (25.8486 3.90317 1592.47) (-0.121059 -112.533 -66.0957) (-131.934 -28.8205 -462.42)
850           (-1175.79 651.855 10319.8) (-1451.14 -89.5454 11655.8) (-337.734 1385.2 13438) (346.052 255.043 8285.66) (-321.632 165.709 9420.34) (-157.817 354.766 7430.11) (139.407 35.0548 7253.88) (102.095 110.641 4633.19) (30.3548 5.3164 2046.93) (-5.76882 -130.526 202.064) (-127.291 -22.2574 -230.945)
900           (-1173.33 655.683 10001.2) (-1471.93 -89.8201 11355) (-341.791 1405.6 13121.8) (353.249 272.685 8004.01) (-340.827 165.669 9167.56) (-175.217 371.349 7330.24) (135.014 28.1386 7409.29) (114.921 162.87 4913.47) (34.8293 7.11777 2506.9) (-12.2017 -153.014 507.122) (-122.122 -14.8275 38.5131)
950           (-1171.02 659.266 9702.93) (-1491.38 -90.0631 11072.7) (-345.55 1424.64 12822.9) (360.009 289.298 7735.39) (-358.917 165.6 8919.48) (-191.311 386.668 7220.65) (130.856 21.6723 7520.99) (126.946 216.736 5114.54) (39.3955 9.10412 2947.19) (-19.3768 -180.671 839.973) (-116.74 -6.70538 345.895)
1000          (-1168.83 662.636 9422.1) (-1509.68 -90.2818 10806.5) (-349.059 1442.5 12539.6) (366.387 305.003 7479.13) (-376.03 165.514 8678.22) (-206.356 400.964 7106.87) (126.922 15.5877 7604.95) (138.332 270.008 5257.87) (44.0824 11.1618 3349.84) (-27.1982 -213.553 1188.05) (-111.524 1.85226 687.544)
1050          (-1166.76 665.819 9156.82) (-1526.95 -90.4826 10554.8) (-352.356 1459.35 12270.9) (372.418 319.874 7235.16) (-392.241 165.421 8445.99) (-220.503 414.395 6993.45) (123.207 9.84334 7672.14) (149.264 321.384 5362.58) (48.7689 13.2919 3707.26) (-35.5175 -250.948 1537.71) (-106.84 10.5526 1056.25)
1100          (-1164.8 668.828 8905.93) (-1543.29 -90.6707 10316.7) (-355.468 1475.27 12016.5) (378.123 333.95 7003.82) (-407.584 165.33 8224.86) (-233.833 427.055 6883.88) (119.725 4.43489 7729.71) (159.78 370.159 5442.92) (53.2701 15.5335 4020.65) (-44.1327 -291.475 1876.88) (-102.963 19.1197 1442.01)
1150          (-1162.94 671.672 8668.85) (-1558.73 -90.8499 10091.8) (-358.411 1490.32 11776.3) (383.512 347.241 6785.62) (-422.068 165.248 8016.54) (-246.379 438.987 6780.62) (116.496 -0.624138 7782.13) (169.815 415.955 5508.58) (57.4461 17.8833 4295.88) (-52.8012 -333.411 2196.86) (-100.019 27.3349 1833.41)
1200          (-1161.2 674.354 8445.42) (-1573.29 -91.0227 9880.03) (-361.192 1504.52 11550.7) (388.585 359.743 6581.13) (-435.68 165.181 7822.31) (-258.146 450.209 6685.28) (113.534 -5.31799 7832.03) (179.281 458.559 5565.8) (61.2402 20.2815 4539.79) (-61.2747 -375.071 2492.76) (-97.9815 35.0518 2219.17)
1250          (-1159.58 676.873 8235.71) (-1586.95 -91.1903 9681.49) (-363.815 1517.87 11339.9) (393.338 371.443 6390.78) (-448.407 165.131 7642.97) (-269.131 460.721 6598.75) (110.844 -9.63625 7880.85) (188.111 497.86 5618.4) (64.6575 22.644 4758.2) (-69.3398 -415.089 2762.76) (-96.7084 42.1896 2589.54)
1300          (-1158.05 679.232 8040.12) (-1599.7 -91.3556 9496.5) (-366.285 1530.34 11144.3) (397.724 382.287 6214.97) (-460.209 165.109 7478.67) (-279.323 470.464 6521.01) (108.43 -13.5308 7928.96) (196.259 533.748 5668.49) (67.7177 24.8948 4955.33) (-76.8215 -452.423 3007.19) (-95.9467 48.7445 2937.19)
1350          (-1156.65 681.416 7858.45) (-1611.56 -91.5127 9325.06) (-368.584 1541.96 10964) (401.829 392.35 6053.54) (-471.127 165.092 7329.81) (-288.727 479.538 6452.67) (106.273 -17.1028 7976.78) (203.727 566.41 5717.07) (70.4793 26.983 5134) (-83.6852 -486.751 3226.89) (-95.624 54.6568 3257.4)
1400          (-1155.35 683.482 7690.97) (-1622.51 -91.6683 9167.32) (-370.737 1552.67 10798.8) (405.604 401.576 5906.52) (-481.153 165.086 7195.83) (-297.339 487.871 6392.73) (104.374 -20.314 8023.95) (210.552 595.871 5764.35) (72.952 28.8762 5295.95) (-89.9141 -517.748 3423.72) (-95.4838 60.0088 3547.84)
1450          (-1154.19 685.325 7537.49) (-1632.54 -91.8105 9022.99) (-372.703 1562.52 10648.5) (409.058 410.006 5773.4) (-490.272 165.098 7076.09) (-305.184 495.504 6341.06) (102.699 -23.1873 8069.77) (216.662 622.229 5810.19) (75.1798 30.5773 5442.62) (-95.4256 -545.399 3599.09) (-95.4927 64.7571 3808.23)
1500          (-1153.14 687.006 7397.64) (-1641.68 -91.9472 8891.75) (-374.507 1571.53 10512.7) (412.198 417.655 5653.68) (-498.531 165.121 6969.84) (-312.278 502.442 6296.81) (101.239 -25.7304 8113.86) (222.143 645.703 5854.2) (77.1689 32.0836 5574.89) (-100.318 -569.872 3754.78) (-95.549 68.9697 4039.49)
1550          (-1152.19 688.53 7271.05) (-1649.97 -92.0757 8773.18) (-376.15 1579.69 10390.5) (415.033 424.549 5546.63) (-505.965 165.152 6876.04) (-318.656 508.707 6259.08) (99.9732 -27.9759 8155.75) (227.029 666.494 5895.96) (78.9405 33.4078 5693.62) (-104.626 -591.391 3892.48) (-95.6105 72.6916 4243.48)
1600          (-1151.38 689.875 7157.26) (-1657.43 -92.1809 8666.78) (-377.613 1587.11 10281.4) (417.616 430.788 5451.36) (-512.617 165.181 6793.56) (-324.369 514.39 6226.86) (98.8475 -29.9587 8195.12) (231.327 684.884 5935) (80.5225 34.567 5799.68) (-108.407 -610.294 4013.93) (-95.7497 75.903 4422.5)
1650          (-1150.62 691.105 7055.38) (-1664.11 -92.2922 8571.66) (-378.953 1593.7 10184.3) (419.885 436.288 5367.05) (-518.54 165.221 6721.33) (-329.44 519.401 6199.66) (97.9066 -31.6885 8231.46) (235.159 700.988 5971.22) (81.9108 35.5757 5894.02) (-111.709 -626.714 4120.58) (-95.7683 78.7833 4578.96)
1700          (-1149.95 692.202 6964.67) (-1670.06 -92.3941 8487.09) (-380.151 1599.58 10098.4) (421.902 441.168 5292.71) (-523.789 165.261 6658.28) (-333.93 523.852 6176.64) (97.0977 -33.1996 8264.79) (238.531 715.091 6004.4) (83.1336 36.4518 5977.55) (-114.588 -640.998 4214.02) (-95.7714 81.3013 4715.32)
1750          (-1149.36 693.175 6884.27) (-1675.33 -92.4865 8412.23) (-381.218 1604.79 10022.6) (423.687 445.481 5227.38) (-528.424 165.302 6603.39) (-337.89 527.789 6157.18) (96.4028 -34.5164 8295.06) (241.488 727.41 6034.51) (84.2074 37.2113 6051.2) (-117.092 -653.399 4295.66) (-95.7617 83.4973 4833.89)
1800          (-1148.84 694.034 6813.31) (-1679.99 -92.5696 8346.23) (-382.164 1609.41 9955.99) (425.26 449.277 5170.16) (-532.5 165.341 6555.68) (-341.37 531.258 6140.69) (95.8061 -35.6615 8322.32) (244.075 738.147 6061.61) (85.1476 37.8689 6115.93) (-119.267 -664.151 4366.85) (-95.7427 85.4086 4936.81)
1850          (-1148.38 694.79 6750.9) (-1684.09 -92.644 8288.24) (-382.998 1613.47 9897.63) (426.643 452.608 5120.16) (-536.074 165.378 6514.3) (-344.42 534.304 6126.73) (95.2939 -36.6559 8346.71) (246.333 747.486 6085.83) (85.9688 38.4376 6172.64) (-121.152 -673.46 4428.8) (-95.7178 87.0694 5026.03)
1900          (-1147.96 695.485 6696.19) (-1687.67 -92.7191 8237.41) (-383.743 1617.01 9846.59) (427.82 455.49 5076.63) (-539.192 165.416 6478.43) (-347.087 536.925 6114.68) (94.8601 -37.4935 8368.33) (248.305 755.576 6107.36) (86.6852 38.9317 6222.15) (-122.787 -681.449 4482.7) (-95.6347 88.5403 5103.25)
1950          (-1147.61 696.059 6648.36) (-1690.81 -92.7762 8193.05) (-384.385 1620.12 9802.14) (428.881 458.035 5038.7) (-541.919 165.446 6447.38) (-349.41 539.256 6104.61) (94.4824 -38.2461 8387.5) (250.012 762.61 6126.37) (87.309 39.3561 6265.36) (-124.196 -688.415 4529.4) (-95.6087 89.7881 5170.09)
2000          (-1147.31 696.562 6606.63) (-1693.56 -92.8268 8154.36) (-384.945 1622.85 9763.46) (429.807 460.255 5005.75) (-544.293 165.475 6420.54) (-351.431 541.29 6096.06) (94.1574 -38.8948 8404.38) (251.495 768.708 6143.1) (87.8496 39.722 6302.94) (-125.419 -694.437 4569.87) (-95.5864 90.8655 5227.86)
2050          (-1147.05 697 6570.3) (-1695.95 -92.8713 8120.7) (-385.434 1625.22 9729.85) (430.612 462.186 4977.17) (-546.357 165.5 6397.35) (-353.186 543.059 6088.78) (93.8785 -39.4554 8419.21) (252.78 773.985 6157.78) (88.3184 40.0377 6335.59) (-126.476 -699.637 4604.9) (-95.5647 91.7971 5277.76)
2100          (-1146.83 697.38 6538.72) (-1698.02 -92.9102 8091.46) (-385.859 1627.28 9700.7) (431.312 463.862 4952.42) (-548.148 165.523 6377.34) (-354.709 544.595 6082.58) (93.6389 -39.9397 8432.18) (253.893 778.547 6170.61) (88.7246 40.3099 6363.91) (-127.389 -704.123 4635.2) (-95.5439 92.6022 5320.84)
2150          (-1146.63 697.71 6511.31) (-1699.83 -92.9442 8066.09) (-386.229 1629.07 9675.44) (431.919 465.315 4930.99) (-549.7 165.543 6360.07) (-356.028 545.927 6077.29) (93.4331 -40.3578 8443.49) (254.856 782.489 6181.81) (89.076 40.5446 6388.44) (-128.176 -707.993 4661.38) (-95.5245 93.2976 5358.02)
2200          (-1146.46 697.997 6487.56) (-1701.39 -92.9739 8044.12) (-386.549 1630.63 9653.58) (432.445 466.573 4912.46) (-551.044 165.56 6345.17) (-357.17 547.081 6072.76) (93.2563 -40.7185 8453.35) (255.688 785.893 6191.55) (89.3799 40.7468 6409.66) (-128.856 -711.33 4683.99) (-95.5068 93.8979 5390.08)
2250          (-1146.32 698.245 6467) (-1702.74 -92.9997 8025.1) (-386.827 1631.97 9634.68) (432.9 467.661 4896.46) (-552.206 165.576 6332.32) (-358.158 548.08 6068.89) (93.1043 -41.0297 8461.91) (256.407 788.831 6200.01) (89.6425 40.9211 6428.02) (-129.441 -714.207 4703.51) (-95.4906 94.4158 5417.73)
2300          (-1146.19 698.46 6449.23) (-1703.92 -93.0226 8008.66) (-387.073 1633.12 9618.4) (433.297 468.594 4882.61) (-553.213 165.59 6321.25) (-359.006 548.941 6065.6) (92.9891 -41.3084 8469.38) (257.04 791.351 6207.34) (89.8644 41.0675 6443.91) (-129.943 -716.701 4720.33) (-95.479 94.8654 5441.57)
2350          (-1146.09 698.632 6433.9) (-1704.93 -93.0457 7994.42) (-387.275 1634.13 9604.38) (433.634 469.401 4870.65) (-554.071 165.61 6311.79) (-359.736 549.679 6062.71) (92.883 -41.5363 8475.82) (257.573 793.523 6213.66) (90.0612 41.1946 6457.6) (-130.379 -718.823 4734.83) (-95.4551 95.2576 5462.09)
2400          (-1145.99 698.79 6420.65) (-1705.8 -93.0627 7982.15) (-387.454 1634.99 9592.26) (433.927 470.095 4860.38) (-554.817 165.621 6303.56) (-360.366 550.316 6060.29) (92.7931 -41.7389 8481.33) (258.033 795.391 6219.19) (90.229 41.3051 6469.37) (-130.751 -720.649 4747.34) (-95.442 95.5908 5479.76)
2450          (-1145.91 698.933 6409.22) (-1706.55 -93.0775 7971.58) (-387.608 1635.74 9581.75) (434.179 470.707 4851.51) (-555.462 165.623 6296.51) (-360.919 550.874 6058.18) (92.7006 -41.9054 8486.15) (258.43 797.024 6223.93) (90.38 41.4031 6479.53) (-131.076 -722.237 4758.12) (-95.4367 95.8692 5494.97)
2500          (-1145.85 699.02 6399.38) (-1707.21 -93.0996 7962.4) (-387.749 1636.36 9572.82) (434.393 471.205 4843.85) (-556.018 165.641 6290.51) (-361.39 551.326 6056.29) (92.6684 -42.0722 8490.35) (258.781 798.378 6227.99) (90.5038 41.4771 6488.31) (-131.325 -723.565 4767.41) (-95.4227 96.1207 5508.06)
2550          (-1145.76 699.179 6390.91) (-1707.75 -93.0982 7954.62) (-387.884 1636.91 9565.03) (434.567 471.643 4837.33) (-556.502 165.639 6285.21) (-361.808 551.743 6054.81) (92.5947 -42.1777 8493.97) (259.085 799.591 6231.52) (90.6084 41.558 6495.89) (-131.561 -724.759 4775.35) (-95.427 96.329 5519.33)
2600          (-1145.73 699.268 6383.7) (-1708.23 -93.0947 7947.94) (-387.942 1637.44 9558.42) (434.763 472.091 4831.63) (-556.913 165.638 6280.75) (-362.154 552.158 6053.55) (92.4868 -42.2963 8496.94) (259.276 800.685 6234.45) (90.7145 41.6199 6502.3) (-131.798 -725.808 4782.14) (-95.4694 96.4691 5529)
2650          (-1145.68 699.322 6377.44) (-1708.66 -93.1227 7942.28) (-388.058 1637.83 9552.56) (434.883 472.382 4826.95) (-557.273 165.655 6276.78) (-362.465 552.412 6052.35) (92.4831 -42.3946 8499.62) (259.563 801.553 6237.1) (90.7621 41.6653 6507.83) (-131.973 -726.666 4788.1) (-95.4149 96.6715 5537.28)
2700          (-1145.64 699.388 6372.24) (-1708.98 -93.1205 7937.48) (-388.114 1638.17 9547.72) (434.995 472.666 4822.93) (-557.554 165.645 6273.54) (-362.695 552.675 6051.41) (92.4185 -42.4572 8501.68) (259.712 802.278 6239.28) (90.8513 41.7142 6512.44) (-132.122 -727.357 4792.99) (-95.4077 96.7892 5544.24)
2750          (-1145.62 699.452 6367.62) (-1709.29 -93.1378 7933.24) (-388.177 1638.46 9543.51) (435.11 472.927 4819.36) (-557.832 165.626 6270.66) (-362.93 552.91 6050.58) (92.3966 -42.5657 8503.69) (259.894 802.96 6241.21) (90.9107 41.7551 6516.53) (-132.247 -728.033 4797.36) (-95.426 96.8883 5550.37)
2800          (-1145.58 699.496 6363.58) (-1709.55 -93.132 7929.44) (-388.251 1638.71 9539.82) (435.174 473.096 4816.26) (-558.045 165.654 6268.16) (-363.114 553.068 6049.87) (92.3865 -42.5826 8505.34) (260.034 803.484 6242.89) (90.9568 41.7859 6520.16) (-132.339 -728.535 4801.12) (-95.3992 97.014 5555.73)
2850          (-1145.56 699.55 6360.24) (-1709.78 -93.1228 7926.4) (-388.282 1638.97 9536.79) (435.28 473.325 4813.55) (-558.25 165.648 6266.11) (-363.293 553.292 6049.27) (92.3259 -42.6565 8506.87) (260.127 804.017 6244.24) (91.0004 41.8158 6523.18) (-132.452 -729.088 4804.27) (-95.459 97.0538 5560.24)
2900          (-1145.53 699.575 6357.35) (-1709.94 -93.1284 7923.74) (-388.328 1639.13 9534.08) (435.304 473.434 4811.45) (-558.384 165.657 6264.34) (-363.403 553.383 6048.71) (92.3177 -42.6583 8507.89) (260.228 804.363 6245.48) (91.0422 41.8479 6525.66) (-132.511 -729.365 4807.01) (-95.4002 97.16 5564)
2950          (-1145.53 699.572 6354.89) (-1710.14 -93.1521 7921.39) (-388.335 1639.34 9531.92) (435.373 473.595 4809.44) (-558.519 165.68 6262.91) (-363.562 553.508 6048.11) (92.2935 -42.7031 8509.17) (260.28 804.724 6246.48) (91.0481 41.8469 6527.8) (-132.607 -729.774 4809.42) (-95.4103 97.1963 5567.28)
3000          (-1145.49 699.658 6352.78) (-1710.25 -93.1385 7919.49) (-388.399 1639.42 9529.94) (435.419 473.681 4807.85) (-558.67 165.648 6261.53) (-363.653 553.607 6047.87) (92.2894 -42.761 8509.93) (260.39 805.049 6247.36) (91.1037 41.8836 6529.75) (-132.64 -730.048 4811.31) (-95.4103 97.2664 5570.11)
3050          (-1145.53 699.579 6350.95) (-1710.4 -93.1509 7917.8) (-388.394 1639.61 9528.24) (435.474 473.814 4806.44) (-558.753 165.676 6260.4) (-363.728 553.73 6047.54) (92.2576 -42.7725 8510.71) (260.443 805.319 6248.11) (91.1139 41.8958 6531.38) (-132.712 -730.323 4813.04) (-95.4303 97.2958 5572.55)
3100          (-1145.48 699.66 6349.34) (-1710.48 -93.1504 7916.29) (-388.443 1639.63 9526.78) (435.493 473.841 4805.23) (-558.845 165.671 6259.41) (-363.787 553.754 6047.22) (92.2955 -42.813 8511.34) (260.525 805.472 6248.81) (91.1374 41.8983 6532.81) (-132.735 -730.486 4814.53) (-95.381 97.3732 5574.66)
3150          (-1145.49 699.644 6348.02) (-1710.59 -93.1593 7915.11) (-388.436 1639.8 9525.53) (435.533 473.972 4804.19) (-558.925 165.667 6258.61) (-363.88 553.865 6046.98) (92.2196 -42.8133 8511.88) (260.542 805.771 6249.33) (91.1627 41.928 6533.93) (-132.809 -730.717 4815.79) (-95.4084 97.3784 5576.42)
3200          (-1145.45 699.717 6346.87) (-1710.65 -93.1511 7913.99) (-388.461 1639.84 9524.49) (435.547 474.014 4803.26) (-558.992 165.657 6257.82) (-363.928 553.918 6046.82) (92.2119 -42.8244 8512.47) (260.583 805.872 6249.85) (91.1711 41.9292 6535.06) (-132.843 -730.903 4816.88) (-95.4032 97.3988 5578)
3250          (-1145.45 699.721 6345.85) (-1710.72 -93.1502 7913.09) (-388.481 1639.9 9523.55) (435.573 474.054 4802.5) (-559.047 165.669 6257.2) (-363.969 553.952 6046.62) (92.2292 -42.8495 8512.83) (260.635 806.015 6250.26) (91.1745 41.9337 6535.93) (-132.859 -731.017 4817.85) (-95.3956 97.4445 5579.35)
3300          (-1145.46 699.703 6344.95) (-1710.77 -93.1494 7912.3) (-388.471 1639.98 9522.7) (435.61 474.127 4801.79) (-559.085 165.68 6256.72) (-364.004 554.009 6046.41) (92.2157 -42.8665 8513.13) (260.636 806.175 6250.61) (91.1965 41.9439 6536.62) (-132.897 -731.121 4818.71) (-95.3961 97.4717 5580.54)
3350          (-1145.45 699.729 6344.3) (-1710.82 -93.1569 7911.66) (-388.498 1640.02 9522.14) (435.613 474.153 4801.28) (-559.139 165.666 6256.27) (-364.057 554.038 6046.3) (92.2062 -42.8802 8513.49) (260.685 806.273 6250.87) (91.2003 41.9519 6537.29) (-132.909 -731.247 4819.32) (-95.4033 97.4767 5581.42)
3400          (-1145.43 699.743 6343.65) (-1710.86 -93.1549 7911.04) (-388.506 1640.05 9521.52) (435.625 474.177 4800.77) (-559.17 165.673 6255.85) (-364.08 554.06 6046.16) (92.2085 -42.8925 8513.72) (260.703 806.34 6251.14) (91.204 41.9512 6537.86) (-132.921 -731.319 4819.96) (-95.3944 97.4986 5582.32)
3450          (-1145.44 699.757 6343.19) (-1710.9 -93.1468 7910.69) (-388.523 1640.09 9521.15) (435.648 474.22 4800.39) (-559.206 165.662 6255.52) (-364.092 554.12 6046.18) (92.2113 -42.8912 8514.03) (260.744 806.436 6251.36) (91.2192 41.968 6538.38) (-132.951 -731.445 4820.33) (-95.4194 97.5049 5582.93)
3500          (-1145.44 699.732 6342.76) (-1710.92 -93.155 7910.26) (-388.524 1640.09 9520.7) (435.645 474.218 4800.09) (-559.218 165.665 6255.26) (-364.1 554.106 6046.06) (92.2226 -42.8983 8514.09) (260.747 806.45 6251.56) (91.2327 41.967 6538.71) (-132.944 -731.438 4820.76) (-95.3945 97.5272 5583.51)
3550          (-1145.42 699.768 6342.32) (-1710.94 -93.149 7909.9) (-388.53 1640.13 9520.28) (435.659 474.265 4799.75) (-559.245 165.65 6254.98) (-364.116 554.158 6046.03) (92.2009 -42.8865 8514.32) (260.771 806.549 6251.77) (91.2467 41.9831 6539.15) (-132.987 -731.541 4821.12) (-95.4088 97.5317 5584.08)
3600          (-1145.44 699.738 6342.01) (-1710.97 -93.1601 7909.54) (-388.52 1640.17 9520) (435.668 474.277 4799.5) (-559.263 165.674 6254.83) (-364.155 554.15 6045.89) (92.1852 -42.9157 8514.38) (260.756 806.589 6251.83) (91.2357 41.9698 6539.32) (-132.977 -731.55 4821.48) (-95.3877 97.5422 5584.51)
3650          (-1145.44 699.726 6341.86) (-1710.99 -93.1664 7909.39) (-388.532 1640.19 9519.89) (435.669 474.281 4799.36) (-559.277 165.672 6254.73) (-364.179 554.152 6045.81) (92.1959 -42.9227 8514.52) (260.777 806.627 6251.85) (91.2273 41.9727 6539.48) (-132.968 -731.59 4821.67) (-95.3984 97.5465 5584.76)
3700          (-1145.45 699.707 6341.58) (-1711.01 -93.1649 7909.12) (-388.514 1640.21 9519.58) (435.677 474.31 4799.15) (-559.283 165.68 6254.55) (-364.182 554.17 6045.73) (92.1675 -42.926 8514.53) (260.75 806.657 6251.97) (91.2415 41.9784 6539.67) (-132.98 -731.598 4821.95) (-95.3938 97.5434 5585.17)
3750          (-1145.43 699.755 6341.46) (-1711.02 -93.1598 7909.05) (-388.547 1640.22 9519.55) (435.683 474.306 4799.02) (-559.305 165.666 6254.43) (-364.196 554.192 6045.81) (92.198 -42.9175 8514.75) (260.811 806.695 6252.03) (91.2325 41.9756 6539.93) (-132.995 -731.7 4822.01) (-95.4104 97.5536 5585.32)
3800          (-1145.4 699.833 6341.3) (-1711.02 -93.1541 7908.9) (-388.553 1640.22 9519.38) (435.675 474.325 4798.89) (-559.327 165.656 6254.33) (-364.224 554.202 6045.74) (92.16 -42.9131 8514.78) (260.802 806.763 6252.07) (91.2371 41.9907 6540.02) (-133.018 -731.727 4822.19) (-95.4119 97.5438 5585.56)
3850          (-1145.4 699.81 6341.2) (-1711.02 -93.1568 7908.79) (-388.548 1640.21 9519.27) (435.68 474.318 4798.83) (-559.322 165.663 6254.29) (-364.213 554.192 6045.69) (92.1752 -42.9262 8514.75) (260.798 806.743 6252.11) (91.2396 41.9808 6540.06) (-133.011 -731.701 4822.3) (-95.4001 97.5576 5585.69)
3900          (-1145.42 699.768 6341.07) (-1711.04 -93.1595 7908.67) (-388.542 1640.22 9519.14) (435.688 474.323 4798.73) (-559.322 165.668 6254.2) (-364.21 554.197 6045.66) (92.1821 -42.9355 8514.78) (260.799 806.744 6252.16) (91.243 41.9772 6540.17) (-133.006 -731.715 4822.43) (-95.404 97.5618 5585.91)
3950          (-1145.42 699.768 6341.07) (-1711.04 -93.1595 7908.67) (-388.542 1640.22 9519.14) (435.688 474.323 4798.73) (-559.322 165.668 6254.2) (-364.21 554.197 6045.66) (92.1821 -42.9355 8514.78) (260.799 806.744 6252.16) (91.243 41.9772 6540.17) (-133.006 -731.715 4822.43) (-95.404 97.5618 5585.91)
4000          (-1145.42 699.768 6341.07) (-1711.04 -93.1595 7908.67) (-388.542 1640.22 9519.14) (435.688 474.323 4798.73) (-559.322 165.668 6254.2) (-364.21 554.197 6045.66) (92.1821 -42.9355 8514.78) (260.799 806.744 6252.16) (91.243 41.9772 6540.17) (-133.006 -731.715 4822.43) (-95.404 97.5618 5585.91)
4050          (-1145.42 699.768 6341.07) (-1711.04 -93.1595 7908.67) (-388.542 1640.22 9519.14) (435.688 474.323 4798.73) (-559.322 165.668 6254.2) (-364.21 554.197 6045.66) (92.1821 -42.9355 8514.78) (260.799 806.744 6252.16) (91.243 41.9772 6540.17) (-133.006 -731.715 4822.43) (-95.404 97.5618 5585.91)
4100          (-1145.42 699.768 6341.07) (-1711.04 -93.1595 7908.67) (-388.542 1640.22 9519.14) (435.688 474.323 4798.73) (-559.322 165.668 6254.2) (-364.21 554.197 6045.66) (92.1821 -42.9355 8514.78) (260.799 806.744 6252.16) (91.243 41.9772 6540.17) (-133.006 -731.715 4822.43) (-95.404 97.5618 5585.91)
4150          (-1145.42 699.768 6341.07) (-1711.04 -93.1595 7908.67) (-388.542 1640.22 9519.14) (435.688 474.323 4798.73) (-559.322 165.668 6254.2) (-364.21 554.197 6045.66) (92.1821 -42.9355 8514.78) (260.799 806.744 6252.16) (91.243 41.9772 6540.17) (-133.006 -731.715 4822.43) (-95.404 97.5618 5585.91)
4200          (-1145.42 699.768 6341.07) (-1711.04 -93.1595 7908.67) (-388.542 1640.22 9519.14) (435.688 474.323 4798.73) (-559.322 165.668 6254.2) (-364.21 554.197 6045.66) (92.1821 -42.9355 8514.78) (260.799 806.744 6252.16) (91.243 41.9772 6540.17) (-133.006 -731.715 4822.43) (-95.404 97.5618 5585.91)
4250          (-1145.42 699.768 6341.07) (-1711.04 -93.1595 7908.67) (-388.542 1640.22 9519.14) (435.688 474.323 4798.73) (-559.322 165.668 6254.2) (-364.21 554.197 6045.66) (92.1821 -42.9355 8514.78) (260.799 806.744 6252.16) (91.243 41.9772 6540.17) (-133.006 -731.715 4822.43) (-95.404 97.5618 5585.91)
4300          (-1145.42 699.768 6341.07) (-1711.04 -93.1595 7908.67) (-388.542 1640.22 9519.14) (435.688 474.323 4798.73) (-559.322 165.668 6254.2) (-364.21 554.197 6045.66) (92.1821 -42.9355 8514.78) (260.799 806.744 6252.16) (91.243 41.9772 6540.17) (-133.006 -731.715 4822.43) (-95.404 97.5618 5585.91)
4350          (-1145.42 699.768 6341.07) (-1711.04 -93.1595 7908.67) (-388.542 1640.22 9519.14) (435.688 474.323 4798.73) (-559.322 165.668 6254.2) (-364.21 554.197 6045.66) (92.1821 -42.9355 8514.78) (260.799 806.744 6252.16) (91.243 41.9772 6540.17) (-133.006 -731.715 4822.43) (-95.404 97.5618 5585.91)
4400          (-1145.42 699.768 6341.07) (-1711.04 -93.1595 7908.67) (-388.542 1640.22 9519.14) (435.688 474.323 4798.73) (-559.322 165.668 6254.2) (-364.21 554.197 6045.66) (92.1821 -42.9355 8514.78) (260.799 806.744 6252.16) (91.243 41.9772 6540.17) (-133.006 -731.715 4822.43) (-95.404 97.5618 5585.91)
4450          (-1145.42 699.768 6341.07) (-1711.04 -93.1595 7908.67) (-388.542 1640.22 9519.14) (435.688 474.323 4798.73) (-559.322 165.668 6254.2) (-364.21 554.197 6045.66) (92.1821 -42.9355 8514.78) (260.799 806.744 6252.16) (91.243 41.9772 6540.17) (-133.006 -731.715 4822.43) (-95.404 97.5618 5585.91)
4500          (-1145.42 699.768 6341.07) (-1711.04 -93.1595 7908.67) (-388.542 1640.22 9519.14) (435.688 474.323 4798.73) (-559.322 165.668 6254.2) (-364.21 554.197 6045.66) (92.1821 -42.9355 8514.78) (260.799 806.744 6252.16) (91.243 41.9772 6540.17) (-133.006 -731.715 4822.43) (-95.404 97.5618 5585.91)
4550          (-1145.42 699.768 6341.07) (-1711.04 -93.1595 7908.67) (-388.542 1640.22 9519.14) (435.688 474.323 4798.73) (-559.322 165.668 6254.2) (-364.21 554.197 6045.66) (92.1821 -42.9355 8514.78) (260.799 806.744 6252.16) (91.243 41.9772 6540.17) (-133.006 -731.715 4822.43) (-95.404 97.5618 5585.91)
4600          (-1145.42 699.768 6341.07) (-1711.04 -93.1595 7908.67) (-388.542 1640.22 9519.14) (435.688 474.323 4798.73) (-559.322 165.668 6254.2) (-364.21 554.197 6045.66) (92.1821 -42.9355 8514.78) (260.799 806.744 6252.16) (91.243 41.9772 6540.17) (-133.006 -731.715 4822.43) (-95.404 97.5618 5585.91)
4650          (-1145.42 699.768 6341.07) (-1711.04 -93.1595 7908.67) (-388.542 1640.22 9519.14) (435.688 474.323 4798.73) (-559.322 165.668 6254.2) (-364.21 554.197 6045.66) (92.1821 -42.9355 8514.78) (260.799 806.744 6252.16) (91.243 41.9772 6540.17) (-133.006 -731.715 4822.43) (-95.404 97.5618 5585.91)
4700          (-1145.42 699.768 6341.07) (-1711.04 -93.1595 7908.67) (-388.542 1640.22 9519.14) (435.688 474.323 4798.73) (-559.322 165.668 6254.2) (-364.21 554.197 6045.66) (92.1821 -42.9355 8514.78) (260.799 806.744 6252.16) (91.243 41.9772 6540.17) (-133.006 -731.715 4822.43) (-95.404 97.5618 5585.91)
4750          (-1145.42 699.768 6341.07) (-1711.04 -93.1595 7908.67) (-388.542 1640.22 9519.14) (435.688 474.323 4798.73) (-559.322 165.668 6254.2) (-364.21 554.197 6045.66) (92.1821 -42.9355 8514.78) (260.799 806.744 6252.16) (91.243 41.9772 6540.17) (-133.006 -731.715 4822.43) (-95.404 97.5618 5585.91)
4800          (-1145.42 699.768 6341.07) (-1711.04 -93.1595 7908.67) (-388.542 1640.22 9519.14) (435.688 474.323 4798.73) (-559.322 165.668 6254.2) (-364.21 554.197 6045.66) (92.1821 -42.9355 8514.78) (260.799 806.744 6252.16) (91.243 41.9772 6540.17) (-133.006 -731.715 4822.43) (-95.404 97.5618 5585.91)