# Probe 0 (0.0015 0.0015 0)
# Probe 1 (0.0015 0.0015 0.002)
# Probe 2 (0.0015 0.0015 0.004)
# Probe 3 (0.0015 0.0015 0.006)
# Probe 4 (0.0015 0.0015 0.008)
# Probe 5 (0.0015 0.0015 0.01)
# Probe 6 (0.0015 0.0015 0.012)
# Probe 7 (0.0015 0.0015 0.014)
# Probe 8 (0.0015 0.0015 0.016)
# Probe 9 (0.0015 0.0015 0.018)
# Probe 10 (0.0015 0.0015 0.02)
# Time        0             1             2             3             4             5             6             7             8             9             10           
50            (-1.86976e-11 1.3535e-11 -4.06993e-10) (2.87072e-10 -1.90433e-10 5.69814e-10) (7.44608e-10 -5.55473e-10 -1.02998e-09) (9.25081e-10 -7.98294e-10 -9.19629e-10) (1.17275e-09 -1.19241e-09 -1.03877e-09) (1.716e-09 -1.54875e-09 -4.63756e-10) (1.85744e-09 -1.60506e-09 -1.06517e-09) (2.11833e-09 -2.05907e-09 -6.71287e-10) (2.50492e-09 -2.21622e-09 -3.14575e-10) (2.91032e-09 -2.48528e-09 -1.1326e-09) (2.88077e-09 -2.56107e-09 -1.65119e-09)
100           (1.68623e-10 -2.61243e-11 -1.79326e-11) (2.71119e-10 -3.98196e-10 3.29463e-10) (1.0852e-09 -1.08042e-09 -7.00508e-11) (1.75314e-09 -1.5381e-09 4.08144e-10) (1.96799e-09 -1.73497e-09 1.03731e-10) (2.37671e-09 -2.09932e-09 1.50058e-10) (2.78408e-09 -2.72965e-09 2.62192e-10) (3.47789e-09 -3.11288e-09 -1.98319e-10) (3.65674e-09 -3.49675e-09 -5.5622e-10) (4.38753e-09 -3.99739e-09 1.09865e-10) (4.28735e-09 -3.90227e-09 -1.27325e-09)
150           (4.41443e-11 -8.98755e-11 -3.01099e-10) (7.14329e-10 -7.89453e-10 4.95559e-10) (1.07781e-09 -1.17706e-09 4.91188e-10) (1.72906e-09 -1.73881e-09 6.7808e-10) (2.47378e-09 -2.22047e-09 9.04176e-10) (2.67769e-09 -2.67723e-09 5.99192e-10) (3.43785e-09 -3.2986e-09 1.9634e-09) (3.72657e-09 -3.78083e-09 1.78527e-09) (4.47954e-09 -4.32945e-09 2.07318e-09) (4.82502e-09 -4.87244e-09 1.5542e-09) (4.87761e-09 -4.60299e-09 1.50357e-09)
200           (1.98109e-10 -6.0504e-11 -2.28855e-10) (5.13412e-10 -5.82052e-10 -6.89956e-10) (1.49685e-09 -1.28506e-09 -1.40489e-09) (1.92478e-09 -1.98197e-09 -1.4018e-09) (2.44753e-09 -2.59967e-09 -1.2802e-09) (3.06211e-09 -3.09235e-09 -1.23839e-09) (3.62371e-09 -3.75935e-09 -1.48114e-09) (4.32378e-09 -4.10812e-09 -1.06206e-09) (4.70712e-09 -4.62133e-09 -1.41829e-10) (4.8688e-09 -4.73189e-09 -1.27889e-09) (5.22457e-09 -5.16864e-09 -3.40657e-10)
250           (1.62723e-10 -1.82165e-10 2.25392e-11) (5.96371e-10 -6.70022e-10 -2.66274e-10) (1.62564e-09 -1.38082e-09 -1.67021e-10) (1.9756e-09 -1.92172e-09 4.69379e-10) (2.61987e-09 -2.57535e-09 9.76285e-10) (3.31368e-09 -3.12965e-09 1.12414e-09) (3.92257e-09 -3.76162e-09 1.3236e-09) (4.37293e-09 -4.38086e-09 5.8296e-10) (4.78559e-09 -4.72173e-09 2.18078e-09) (5.36574e-09 -5.16448e-09 1.81606e-09) (5.73637e-09 -5.07614e-09 1.62696e-09)
300           (6.08034e-11 -2.06092e-10 2.87587e-10) (5.73158e-10 -7.77728e-10 -1.35702e-11) (1.37884e-09 -1.57846e-09 2.99379e-11) (2.17709e-09 -2.14026e-09 4.02691e-11) (2.71031e-09 -2.64835e-09 -6.67088e-10) (3.42284e-09 -3.26811e-09 -4.7672e-10) (4.13661e-09 -3.79893e-09 5.79701e-10) (4.26991e-09 -4.2035e-09 2.02368e-10) (4.86664e-09 -4.72944e-09 9.15464e-10) (5.34331e-09 -5.18974e-09 5.46298e-10) (5.51954e-09 -5.61704e-09 6.85777e-10)
350           (-5.43599e-11 -1.20799e-10 -1.21107e-10) (4.04003e-10 -8.80456e-10 -1.56133e-10) (1.19467e-09 -1.19255e-09 -3.55575e-10) (1.89112e-09 -1.95452e-09 3.60024e-10) (2.59005e-09 -2.64132e-09 1.93061e-10) (3.39892e-09 -3.54379e-09 -3.39722e-12) (3.70739e-09 -3.99076e-09 -5.63981e-10) (4.48683e-09 -4.35566e-09 -4.32021e-10) (5.22621e-09 -4.97086e-09 8.25299e-10) (5.57142e-09 -5.38044e-09 -5.9227e-10) (5.46386e-09 -5.3255e-09 -2.23035e-10)
400           (7.56087e-13 -1.33845e-10 -2.15513e-10) (5.94703e-10 -7.20617e-10 -9.43496e-10) (1.47989e-09 -1.32452e-09 -1.05366e-09) (2.07162e-09 -2.10112e-09 -9.83229e-10) (2.60425e-09 -2.74583e-09 -1.60431e-09) (3.25699e-09 -3.6356e-09 -9.77067e-10) (4.05118e-09 -4.3398e-09 -1.13771e-09) (4.52865e-09 -4.6341e-09 -1.34559e-09) (5.3547e-09 -5.43903e-09 -7.33605e-10) (5.63248e-09 -5.29519e-09 -9.52329e-11) (5.13961e-09 -5.37444e-09 6.63529e-12)
450           (1.38594e-10 -2.88487e-10 -1.55666e-10) (8.04785e-10 -7.29189e-10 -6.1947e-10) (1.41091e-09 -1.33787e-09 -8.95949e-10) (1.973e-09 -2.07348e-09 -1.10402e-09) (2.68942e-09 -2.52348e-09 -1.52994e-10) (3.73983e-09 -3.43239e-09 -4.08191e-10) (4.23014e-09 -4.36914e-09 -2.17001e-10) (4.4719e-09 -4.6954e-09 -6.92292e-10) (5.19039e-09 -5.17835e-09 3.88748e-10) (5.52328e-09 -5.32354e-09 4.75589e-10) (5.47827e-09 -5.47361e-09 -6.35863e-10)
500           (-2.18765e-11 -9.71142e-11 5.82026e-11) (3.74865e-10 -6.80981e-10 3.26127e-10) (1.37232e-09 -1.08678e-09 -4.34296e-11) (2.06999e-09 -2.4178e-09 6.73331e-10) (2.62903e-09 -2.99084e-09 1.16748e-09) (3.36474e-09 -3.53013e-09 1.11201e-09) (4.11794e-09 -4.07269e-09 1.27407e-09) (4.78302e-09 -4.94747e-09 1.14694e-09) (5.50046e-09 -5.09393e-09 2.0202e-09) (5.59713e-09 -5.32659e-09 1.03074e-09) (5.56792e-09 -5.92158e-09 1.34225e-09)
550           (3.87239e-11 -1.48343e-10 -1.40367e-10) (6.9809e-10 -8.06421e-10 7.41572e-10) (1.65967e-09 -1.4165e-09 6.10505e-11) (2.32603e-09 -2.16772e-09 -1.09352e-09) (2.90156e-09 -2.69205e-09 -1.40524e-09) (3.71595e-09 -3.45388e-09 -1.47897e-09) (3.66406e-09 -4.03902e-09 -1.26413e-09) (4.7171e-09 -4.42866e-09 -8.23481e-10) (5.1956e-09 -5.15821e-09 -4.70207e-10) (5.54206e-09 -5.54577e-09 -1.49388e-10) (5.71032e-09 -5.55024e-09 -7.00086e-10)
600           (1.92969e-10 -5.94102e-11 -1.46365e-11) (8.55555e-10 -9.25242e-10 -1.8186e-10) (1.55311e-09 -1.59192e-09 -4.66305e-10) (2.08851e-09 -1.93734e-09 -9.58194e-10) (2.72811e-09 -2.67318e-09 -1.56029e-09) (3.47831e-09 -3.33273e-09 -1.3603e-09) (4.18652e-09 -3.90566e-09 -1.36263e-09) (4.71929e-09 -4.62943e-09 -2.04001e-09) (5.2412e-09 -4.98897e-09 -1.42917e-09) (5.42252e-09 -5.48131e-09 -1.54214e-09) (5.56055e-09 -5.51679e-09 -1.53767e-09)
650           (1.13924e-10 -1.40593e-10 1.55119e-10) (6.49304e-10 -5.50533e-10 2.60394e-10) (1.44097e-09 -1.24115e-09 5.00136e-10) (2.34565e-09 -1.94333e-09 3.00547e-10) (2.88672e-09 -2.80808e-09 4.1921e-11) (3.49737e-09 -3.59034e-09 -2.09524e-10) (4.19302e-09 -4.10929e-09 -3.35026e-10) (4.91732e-09 -4.58889e-09 -7.18294e-11) (5.44357e-09 -5.51055e-09 6.44364e-10) (5.6124e-09 -5.40243e-09 7.37732e-10) (5.82388e-09 -5.71806e-09 1.05634e-09)
700           (-3.46914e-11 -1.45177e-11 -5.85656e-11) (7.62036e-10 -6.96859e-10 -2.39902e-10) (1.56179e-09 -1.12227e-09 -2.18898e-10) (2.17227e-09 -2.11634e-09 -3.42982e-11) (2.8706e-09 -2.74321e-09 -2.82801e-10) (3.50866e-09 -3.30531e-09 -1.50429e-11) (3.96154e-09 -3.88993e-09 1.95285e-10) (4.75224e-09 -4.83397e-09 9.82878e-10) (5.33998e-09 -5.35204e-09 7.14712e-10) (5.83056e-09 -5.51585e-09 1.25152e-09) (5.84437e-09 -5.3434e-09 1.50477e-10)
750           (2.10277e-11 -1.27567e-10 -2.00786e-10) (5.83077e-10 -7.56397e-10 -5.7708e-10) (1.43991e-09 -1.35406e-09 -1.16587e-10) (2.25457e-09 -1.96813e-09 1.22765e-10) (2.90161e-09 -2.79882e-09 1.41328e-10) (3.68172e-09 -3.43054e-09 -9.84695e-12) (4.05221e-09 -4.08992e-09 1.14294e-09) (4.49503e-09 -4.70731e-09 9.14879e-10) (5.39677e-09 -5.25448e-09 1.42805e-09) (5.68089e-09 -5.48003e-09 1.12739e-09) (5.68973e-09 -5.26323e-09 4.65808e-10)
800           (1.4147e-10 -1.84018e-10 3.84741e-11) (7.95198e-10 -6.36279e-10 2.79259e-11) (1.54519e-09 -1.3709e-09 -3.64767e-10) (1.99025e-09 -2.27531e-09 1.44822e-10) (2.44978e-09 -2.62362e-09 -1.75258e-11) (3.48147e-09 -3.78099e-09 -2.95377e-10) (4.02584e-09 -4.11389e-09 7.6961e-11) (4.25692e-09 -4.32736e-09 1.46018e-12) (5.20927e-09 -5.14707e-09 -3.38347e-10) (5.39009e-09 -5.69618e-09 9.31349e-11) (5.42904e-09 -5.62708e-09 -1.72642e-09)
850           (1.50292e-12 -1.26866e-10 -1.2075e-10) (7.04672e-10 -7.39517e-10 -6.97591e-10) (1.45291e-09 -1.31786e-09 -6.81456e-10) (2.12427e-09 -2.10652e-09 -6.77565e-10) (2.97457e-09 -2.83667e-09 -1.18377e-09) (3.25305e-09 -3.39098e-09 -8.60512e-10) (4.37866e-09 -4.09767e-09 -1.32751e-09) (4.65074e-09 -4.68921e-09 -1.83394e-09) (4.94615e-09 -4.98425e-09 -7.9325e-10) (5.55476e-09 -5.38513e-09 -8.27481e-10) (5.67131e-09 -5.55784e-09 -1.12842e-09)
900           (2.27683e-10 -1.04805e-10 -1.08878e-10) (9.6033e-10 -6.69622e-10 2.8667e-10) (1.35574e-09 -1.3104e-09 5.4843e-10) (2.13732e-09 -2.0867e-09 8.55348e-10) (2.76488e-09 -2.60555e-09 1.55523e-09) (3.16616e-09 -3.44451e-09 5.04362e-10) (3.94458e-09 -4.28059e-09 9.7311e-10) (4.53327e-09 -4.62256e-09 7.35253e-10) (5.10859e-09 -5.11542e-09 5.07882e-10) (5.39892e-09 -5.39635e-09 1.28665e-10) (5.68557e-09 -5.02565e-09 4.43239e-10)
950           (9.88297e-11 -1.2194e-10 -4.29868e-11) (4.95223e-10 -6.51511e-10 -7.67458e-12) (1.54268e-09 -1.20701e-09 -1.99685e-10) (2.04748e-09 -1.99936e-09 -3.02987e-11) (2.86621e-09 -2.52069e-09 -5.63035e-10) (3.57639e-09 -3.38585e-09 -4.88711e-10) (3.94985e-09 -3.97899e-09 -5.06443e-10) (4.3407e-09 -4.54616e-09 -5.61895e-10) (5.25838e-09 -5.03353e-09 9.26005e-11) (5.2735e-09 -5.38097e-09 -1.12189e-11) (5.45251e-09 -5.55126e-09 2.76989e-11)
1000          (-1.58747e-10 -2.29399e-11 -3.39503e-10) (5.55816e-10 -5.74558e-10 -4.42852e-10) (1.13282e-09 -1.35805e-09 -2.83161e-10) (2.10297e-09 -1.71034e-09 -4.9826e-10) (2.8385e-09 -2.61949e-09 -1.90507e-10) (3.10972e-09 -3.38253e-09 -5.69984e-10) (4.26171e-09 -3.78987e-09 5.1867e-10) (4.49096e-09 -4.46428e-09 -7.87904e-10) (5.1722e-09 -4.7486e-09 -2.88998e-10) (5.60293e-09 -5.38989e-09 -7.13606e-10) (5.63811e-09 -5.47043e-09 -2.88423e-10)
1050          (-4.99783e-12 1.27553e-11 -1.25281e-10) (6.72885e-10 -5.65831e-10 -1.57869e-10) (1.41497e-09 -1.03081e-09 -2.39729e-10) (2.1069e-09 -1.82463e-09 -3.32814e-10) (2.80876e-09 -2.65953e-09 -2.39293e-10) (3.49801e-09 -3.44431e-09 3.72386e-10) (3.79596e-09 -4.02882e-09 1.7911e-10) (4.34044e-09 -4.40816e-09 6.74986e-12) (5.08194e-09 -5.14683e-09 3.95428e-10) (5.54883e-09 -5.39952e-09 4.26656e-11) (5.74317e-09 -5.48373e-09 -3.97848e-10)
1100          (5.88406e-11 -3.69975e-12 1.56504e-11) (3.22755e-10 -5.96127e-10 3.86393e-10) (1.35129e-09 -1.58851e-09 3.27896e-10) (2.14535e-09 -2.22971e-09 8.43904e-10) (2.60449e-09 -2.62674e-09 1.22704e-09) (3.36604e-09 -3.30158e-09 8.52847e-10) (3.99594e-09 -4.10638e-09 1.54886e-09) (4.7302e-09 -4.66244e-09 1.55783e-09) (5.02437e-09 -5.01566e-09 2.69985e-09) (5.59752e-09 -5.59842e-09 1.82891e-09) (5.41522e-09 -5.704e-09 1.91794e-09)
1150          (3.32255e-11 1.08216e-10 -2.89439e-10) (8.15701e-10 -4.91986e-10 1.25342e-10) (1.28682e-09 -1.60564e-09 1.67644e-10) (2.08986e-09 -2.01579e-09 9.93382e-11) (2.70794e-09 -2.84597e-09 -6.17199e-10) (3.26533e-09 -3.28528e-09 2.21707e-10) (4.31569e-09 -3.70926e-09 -1.64564e-10) (4.45653e-09 -4.54299e-09 -9.07311e-10) (5.16086e-09 -5.20979e-09 -7.71534e-10) (5.51662e-09 -5.47925e-09 -7.69444e-10) (5.63183e-09 -5.28278e-09 -4.90643e-10)
1200          (-3.40073e-11 -2.06567e-10 -1.72885e-10) (7.51783e-10 -7.7943e-10 -1.64046e-10) (1.33793e-09 -1.43467e-09 -9.63748e-11) (2.07098e-09 -2.1254e-09 -5.06189e-11) (2.68055e-09 -2.78654e-09 4.72477e-10) (3.22889e-09 -3.38867e-09 -3.21463e-10) (3.86079e-09 -4.00389e-09 -9.29452e-10) (4.66852e-09 -4.58007e-09 -4.2342e-11) (4.87376e-09 -5.03079e-09 -1.42021e-10) (5.34546e-09 -5.44507e-09 -7.71004e-10) (5.32404e-09 -5.81481e-09 -4.10005e-10)
1250          (2.73449e-10 2.3038e-11 -1.21045e-10) (6.26558e-10 -1.72396e-10 -2.70614e-10) (1.38751e-09 -1.30754e-09 -2.03852e-10) (2.08505e-09 -1.85313e-09 3.88848e-10) (3.07012e-09 -2.59406e-09 4.45648e-10) (3.42449e-09 -3.2329e-09 4.36649e-10) (3.84523e-09 -3.72422e-09 1.4097e-09) (4.65792e-09 -4.59939e-09 9.37041e-10) (5.25685e-09 -5.05848e-09 1.78178e-09) (5.59671e-09 -5.54559e-09 1.23296e-09) (5.67972e-09 -5.65467e-09 1.44805e-09)
1300          (-8.83464e-11 -1.16627e-10 4.56374e-11) (5.41547e-10 -7.3406e-10 -3.05858e-10) (1.29959e-09 -1.59272e-09 -7.61599e-11) (2.27255e-09 -2.26989e-09 -7.95239e-10) (2.64039e-09 -2.84616e-09 -3.691e-11) (3.28706e-09 -3.70551e-09 4.47325e-10) (4.04663e-09 -4.14429e-09 4.51875e-10) (4.70122e-09 -4.65654e-09 8.68321e-10) (5.40603e-09 -4.96026e-09 1.22669e-09) (5.68485e-09 -5.27174e-09 5.86675e-10) (5.9867e-09 -5.48083e-09 1.62326e-10)
1350          (1.15654e-10 -1.81834e-10 -4.37886e-11) (9.16191e-10 -7.38232e-10 4.78752e-11) (1.50297e-09 -1.2032e-09 -9.59926e-10) (2.02769e-09 -2.04914e-09 -1.31671e-09) (2.37327e-09 -2.86321e-09 -1.5263e-09) (3.61158e-09 -3.55046e-09 -1.05076e-09) (4.21837e-09 -3.84548e-09 -1.19802e-09) (4.65846e-09 -4.42671e-09 -1.11313e-09) (5.03969e-09 -5.0394e-09 8.48285e-11) (5.44962e-09 -5.35837e-09 -1.06689e-09) (5.38354e-09 -5.43659e-09 -2.9253e-10)
1400          (1.90689e-10 -7.47491e-11 4.14629e-10) (8.4339e-10 -4.15106e-10 -5.64103e-11) (1.59055e-09 -1.03694e-09 -8.60452e-10) (1.99163e-09 -1.80746e-09 -4.91196e-10) (2.54126e-09 -2.57953e-09 -6.53036e-10) (3.39276e-09 -3.28449e-09 -6.05512e-10) (3.90692e-09 -4.01576e-09 -6.46515e-10) (4.46095e-09 -4.56869e-09 -9.47752e-10) (4.95737e-09 -5.15515e-09 1.08877e-10) (5.19921e-09 -5.25791e-09 -1.60231e-10) (5.31036e-09 -5.4699e-09 -2.91059e-10)
1450          (1.42176e-10 -1.12401e-10 -5.06052e-11) (7.02185e-10 -7.28292e-10 -3.31e-10) (1.32643e-09 -1.45027e-09 -1.69568e-10) (2.14482e-09 -2.18609e-09 2.86321e-10) (2.55566e-09 -2.71473e-09 2.46428e-10) (3.51678e-09 -3.35204e-09 6.60131e-10) (4.00223e-09 -4.00784e-09 1.02849e-09) (4.48581e-09 -4.4828e-09 1.11894e-09) (5.13611e-09 -4.90988e-09 7.0237e-10) (5.48966e-09 -5.27835e-09 7.68289e-10) (5.73835e-09 -4.99946e-09 1.3011e-09)
1500          (9.94437e-11 -1.62135e-10 -1.57442e-10) (6.91023e-10 -7.5805e-10 -4.27212e-10) (1.55504e-09 -1.11403e-09 -6.27463e-10) (2.31705e-09 -2.04755e-09 -8.82275e-10) (2.88446e-09 -2.90324e-09 -1.38013e-09) (3.44521e-09 -3.24417e-09 -1.64362e-09) (4.22718e-09 -4.11803e-09 -1.42171e-09) (4.66258e-09 -4.68487e-09 -2.5974e-09) (5.14799e-09 -4.83305e-09 -1.76317e-09) (5.49032e-09 -5.4012e-09 -1.69329e-09) (5.54491e-09 -5.3836e-09 -1.98533e-09)
1550          (1.00376e-10 -2.40911e-10 2.52984e-10) (6.2591e-10 -6.13842e-10 -6.63199e-10) (1.39818e-09 -1.09838e-09 -4.23053e-10) (2.09954e-09 -2.0423e-09 -8.9609e-10) (2.66676e-09 -2.6572e-09 7.5778e-11) (3.22887e-09 -3.46925e-09 -4.53273e-10) (3.99005e-09 -3.93337e-09 5.89073e-10) (4.52652e-09 -4.43822e-09 -1.03831e-09) (5.266e-09 -5.00346e-09 -6.27513e-10) (5.73522e-09 -5.05092e-09 -2.50747e-10) (5.71542e-09 -5.21517e-09 3.78036e-10)
1600          (1.02134e-10 -1.74589e-10 5.24599e-11) (7.06031e-10 -8.18082e-10 -5.12811e-10) (1.36223e-09 -1.38248e-09 -1.88671e-10) (2.01822e-09 -2.12028e-09 3.39296e-10) (2.69776e-09 -2.66696e-09 -2.494e-10) (3.49982e-09 -3.66712e-09 4.5276e-10) (3.96302e-09 -3.85057e-09 9.96865e-11) (4.68196e-09 -4.75178e-09 2.51998e-10) (5.28978e-09 -5.29046e-09 5.45228e-10) (5.64522e-09 -5.51739e-09 1.24963e-09) (5.44634e-09 -5.65113e-09 1.5705e-09)
1650          (4.16177e-11 -2.01512e-10 -2.36852e-10) (7.30196e-10 -8.22823e-10 -6.11388e-10) (1.62463e-09 -1.15839e-09 -8.59258e-10) (2.29242e-09 -2.22322e-09 -1.52812e-09) (2.64196e-09 -2.7997e-09 -2.75309e-10) (3.60104e-09 -3.46867e-09 -4.96518e-10) (4.04868e-09 -4.24709e-09 -2.95337e-10) (4.58034e-09 -4.50004e-09 -5.10335e-10) (5.18916e-09 -5.09626e-09 -5.28571e-11) (5.4935e-09 -5.66795e-09 -3.48385e-10) (5.79476e-09 -5.45899e-09 -7.93528e-10)
1700          (4.17732e-11 -2.78691e-11 1.32032e-10) (3.76605e-10 -5.19345e-10 -8.82185e-10) (1.13712e-09 -1.30318e-09 -8.50044e-11) (1.89122e-09 -1.99612e-09 -9.47123e-10) (2.57369e-09 -2.69034e-09 2.20696e-10) (3.45719e-09 -3.53613e-09 -1.32585e-10) (3.83402e-09 -4.03083e-09 -1.00897e-10) (4.41502e-09 -4.68857e-09 -5.00117e-10) (5.06094e-09 -5.11696e-09 -2.83278e-10) (5.50404e-09 -5.50773e-09 -1.07256e-09) (5.58004e-09 -5.44357e-09 -1.08361e-09)
1750          (8.93505e-12 -3.45479e-11 -1.19932e-10) (6.2285e-10 -5.54605e-10 1.8402e-10) (1.54783e-09 -1.4753e-09 2.67099e-10) (2.13349e-09 -2.20956e-09 5.72567e-10) (2.73333e-09 -2.60177e-09 1.18615e-10) (3.53066e-09 -3.71153e-09 3.23994e-10) (4.07912e-09 -4.06036e-09 5.46858e-10) (4.73081e-09 -4.68155e-09 1.10566e-09) (5.13509e-09 -5.129e-09 2.62358e-09) (5.47219e-09 -5.35081e-09 2.07671e-09) (5.7677e-09 -5.5816e-09 2.40451e-09)
1800          (5.27152e-11 -7.16867e-11 -7.80162e-11) (5.75513e-10 -7.17522e-10 -2.92352e-10) (1.45614e-09 -1.34382e-09 -7.91457e-10) (2.12468e-09 -1.951e-09 -6.08519e-10) (2.93651e-09 -2.90555e-09 2.36845e-10) (3.57449e-09 -3.22119e-09 -5.92313e-10) (4.05485e-09 -4.1792e-09 -4.77958e-10) (4.77558e-09 -4.7954e-09 -1.10734e-09) (5.28426e-09 -5.04413e-09 1.88195e-10) (5.46835e-09 -5.45607e-09 2.11438e-10) (5.70903e-09 -5.40481e-09 1.03263e-09)
1850          (1.0792e-10 -6.35389e-11 2.54622e-10) (5.46098e-10 -8.92602e-10 -2.78929e-10) (1.47091e-09 -1.21521e-09 -3.01212e-11) (2.37354e-09 -2.01342e-09 -1.67917e-10) (2.64973e-09 -2.71343e-09 -3.57949e-10) (3.47429e-09 -3.29639e-09 1.64318e-10) (4.06735e-09 -4.00815e-09 5.70261e-10) (4.52997e-09 -4.52213e-09 2.70708e-10) (5.45244e-09 -5.21735e-09 3.53994e-10) (5.75079e-09 -5.6352e-09 8.56033e-10) (5.47843e-09 -5.72383e-09 6.03501e-10)
1900          (9.19176e-11 8.18568e-12 -1.76275e-10) (7.32496e-10 -7.03879e-10 -3.3728e-10) (1.41943e-09 -1.34168e-09 -4.91733e-10) (2.18535e-09 -2.15982e-09 -4.2934e-10) (2.7596e-09 -3.08116e-09 9.23574e-11) (3.47096e-09 -3.39736e-09 3.23443e-10) (4.00908e-09 -4.10912e-09 -1.71963e-11) (4.78923e-09 -4.48587e-09 7.97655e-11) (5.2753e-09 -4.93974e-09 2.89758e-10) (5.25239e-09 -5.43565e-09 8.12133e-10) (5.46616e-09 -5.17886e-09 -2.5615e-10)
1950          (1.33524e-10 -8.50124e-11 1.28096e-11) (7.4089e-10 -4.26251e-10 -3.1233e-10) (1.55908e-09 -1.0514e-09 -4.46851e-10) (2.06353e-09 -2.04564e-09 6.95312e-10) (2.73449e-09 -2.84485e-09 2.53469e-10) (3.49366e-09 -3.54616e-09 4.69925e-10) (4.19939e-09 -4.16499e-09 5.0384e-11) (4.69845e-09 -4.56106e-09 -4.98633e-10) (5.23288e-09 -5.1441e-09 6.13449e-10) (5.36195e-09 -5.24045e-09 2.68195e-10) (5.20766e-09 -5.58218e-09 3.52497e-10)
2000          (3.22211e-11 4.08078e-11 -3.13658e-11) (6.16716e-10 -5.87381e-10 -2.81955e-11) (1.50303e-09 -1.31912e-09 -1.25289e-10) (2.14853e-09 -2.28379e-09 2.34146e-10) (2.69253e-09 -2.87083e-09 6.60914e-10) (3.48893e-09 -3.4752e-09 5.88573e-10) (3.93686e-09 -4.08459e-09 1.39088e-09) (4.58533e-09 -4.8476e-09 3.46715e-10) (5.195e-09 -5.02228e-09 7.08641e-10) (5.50079e-09 -5.3583e-09 5.73212e-10) (5.41699e-09 -5.22835e-09 -2.76729e-10)
2050          (1.75704e-10 6.01964e-11 8.77961e-11) (5.63015e-10 -5.06397e-10 -5.45005e-10) (1.65471e-09 -1.2823e-09 -5.76939e-10) (1.98457e-09 -1.91765e-09 -6.67971e-10) (2.69541e-09 -2.71274e-09 -3.60458e-10) (3.51257e-09 -3.33059e-09 -6.81054e-10) (4.07776e-09 -4.08922e-09 -1.18618e-09) (4.47593e-09 -4.54741e-09 -8.22285e-10) (5.17875e-09 -4.86872e-09 -4.59181e-10) (5.30307e-09 -5.25099e-09 -8.00418e-11) (5.44615e-09 -5.14509e-09 -1.9451e-09)
2100          (2.6864e-10 -1.56597e-10 -2.06834e-10) (7.03723e-10 -6.56075e-10 -3.41086e-10) (1.53591e-09 -1.23069e-09 -5.67667e-10) (2.34727e-09 -1.97689e-09 -1.26023e-10) (2.93564e-09 -2.63125e-09 9.7577e-11) (3.27858e-09 -3.41767e-09 6.62024e-11) (3.96254e-09 -4.11246e-09 3.51686e-10) (4.59022e-09 -4.54527e-09 7.01771e-10) (5.03562e-09 -5.03353e-09 1.52799e-09) (5.73791e-09 -5.24802e-09 1.21349e-09) (5.61863e-09 -5.46372e-09 6.87563e-10)
2150          (4.31788e-11 -1.14358e-10 1.01308e-10) (4.26347e-10 -6.24826e-10 -5.33032e-11) (1.59942e-09 -1.24836e-09 -7.1034e-10) (2.157e-09 -2.16497e-09 -3.99785e-10) (2.74397e-09 -2.78016e-09 -6.80608e-10) (3.37037e-09 -3.57301e-09 -4.7756e-10) (4.04112e-09 -3.62527e-09 1.43365e-10) (4.77723e-09 -4.4695e-09 -5.52691e-10) (5.14919e-09 -4.99793e-09 3.55119e-10) (5.46098e-09 -5.43696e-09 2.60555e-10) (5.74993e-09 -5.57283e-09 -8.9857e-10)
2200          (1.15975e-10 4.82949e-12 2.02203e-10) (6.84413e-10 -7.06061e-10 -8.16023e-10) (1.31783e-09 -1.11399e-09 -4.93022e-10) (2.02198e-09 -1.92837e-09 -3.94416e-10) (2.64563e-09 -2.68311e-09 -5.55453e-10) (3.41888e-09 -3.32509e-09 -6.58343e-10) (3.89123e-09 -3.81707e-09 -1.39639e-09) (4.38277e-09 -4.55885e-09 -2.36999e-09) (5.11744e-09 -5.0061e-09 -1.96723e-09) (5.72076e-09 -5.41779e-09 -2.33308e-09) (5.3456e-09 -5.28378e-09 -2.88972e-09)
2250          (-4.71468e-11 -5.684e-12 -2.7876e-10) (4.64992e-10 -7.75746e-10 -4.97264e-10) (1.27699e-09 -1.46071e-09 -5.14767e-10) (2.13277e-09 -2.27929e-09 3.83616e-10) (2.43112e-09 -2.78681e-09 1.78702e-10) (3.41618e-09 -3.619e-09 -7.82882e-10) (3.98953e-09 -4.05915e-09 -1.27895e-10) (4.58085e-09 -4.65566e-09 -8.90324e-10) (5.20659e-09 -5.25106e-09 -1.04458e-09) (5.65908e-09 -5.53953e-09 -1.36197e-09) (5.2981e-09 -5.02442e-09 -4.72164e-10)
2300          (1.46315e-11 -1.51211e-10 -2.52594e-11) (5.63049e-10 -9.36564e-10 -7.96955e-10) (1.45544e-09 -1.30915e-09 -1.64301e-09) (2.20187e-09 -2.29999e-09 -1.3845e-09) (2.82233e-09 -2.68608e-09 -1.44992e-09) (3.41203e-09 -3.11306e-09 -1.81383e-09) (3.86222e-09 -4.14208e-09 -1.46804e-09) (4.799e-09 -4.71647e-09 -1.69434e-09) (5.38386e-09 -5.24904e-09 -1.16e-09) (5.46245e-09 -5.28656e-09 -1.07842e-09) (5.75773e-09 -5.60427e-09 -1.25392e-09)
2350          (8.59328e-11 -6.86129e-11 2.09378e-10) (6.97536e-10 -3.61419e-10 -4.34518e-10) (1.12109e-09 -1.4284e-09 -6.03362e-10) (2.00921e-09 -2.02577e-09 -5.91e-10) (2.6938e-09 -2.73787e-09 -6.38933e-10) (3.3971e-09 -3.56793e-09 -8.53477e-10) (4.14658e-09 -4.12819e-09 2.74258e-12) (4.66057e-09 -4.7431e-09 -3.39194e-10) (5.32425e-09 -5.17909e-09 -2.08565e-11) (5.79907e-09 -5.52037e-09 -1.08978e-09) (5.77432e-09 -5.42435e-09 -1.54252e-09)
2400          (1.72273e-10 -1.98259e-10 7.97465e-11) (8.1271e-10 -6.19702e-10 3.07311e-10) (1.47409e-09 -1.40526e-09 1.90311e-11) (2.1935e-09 -1.90232e-09 -4.34909e-11) (2.87385e-09 -2.7998e-09 -1.6395e-10) (3.5136e-09 -3.44868e-09 7.01491e-10) (4.03036e-09 -4.05745e-09 1.04077e-09) (4.95247e-09 -4.61364e-09 8.8637e-10) (5.27226e-09 -5.21621e-09 7.14701e-10) (5.61601e-09 -5.5088e-09 7.50383e-10) (5.55086e-09 -5.6581e-09 1.30272e-09)
2450          (-2.31204e-11 -5.43022e-11 -1.56448e-10) (6.06558e-10 -6.29235e-10 -4.02778e-10) (1.47748e-09 -1.45592e-09 -1.06666e-09) (2.0888e-09 -2.18562e-09 -1.09848e-09) (2.72911e-09 -2.72455e-09 -7.53874e-10) (3.22494e-09 -3.39715e-09 -2.00027e-09) (3.94194e-09 -4.16188e-09 -1.40489e-09) (4.57102e-09 -4.45561e-09 -1.9856e-09) (5.33443e-09 -4.9277e-09 -1.83766e-09) (5.54574e-09 -5.46817e-09 -1.60411e-09) (5.46421e-09 -5.53427e-09 -1.84641e-09)
2500          (5.6952e-11 -2.43961e-10 3.02191e-11) (6.53417e-10 -6.56446e-10 -2.65826e-10) (1.5436e-09 -1.27584e-09 2.31928e-10) (1.7089e-09 -1.98188e-09 3.2431e-10) (2.65086e-09 -2.60867e-09 -1.6746e-10) (3.43971e-09 -3.4902e-09 -3.88488e-10) (3.82214e-09 -4.18913e-09 3.73844e-10) (4.41798e-09 -4.64898e-09 -5.37535e-10) (4.91144e-09 -5.10683e-09 2.31205e-10) (5.56604e-09 -5.39738e-09 -2.81682e-10) (5.55954e-09 -5.19094e-09 3.09151e-10)
2550          (-3.93525e-11 -1.31524e-10 8.89838e-11) (6.16074e-10 -6.85846e-10 1.51865e-11) (1.3593e-09 -1.39998e-09 -6.4301e-10) (2.17542e-09 -2.14518e-09 -2.59652e-10) (2.70889e-09 -2.60439e-09 -3.18553e-10) (3.54438e-09 -3.23052e-09 -9.67021e-10) (3.99303e-09 -4.19805e-09 -8.64562e-10) (4.7362e-09 -4.55719e-09 -5.38261e-10) (5.56982e-09 -5.20543e-09 -1.62165e-10) (5.76721e-09 -5.43028e-09 -5.46531e-11) (5.45963e-09 -5.60013e-09 -3.68474e-10)
2600          (1.10182e-10 -2.35631e-10 -5.38204e-11) (7.58872e-10 -6.42684e-10 2.32527e-10) (1.47647e-09 -1.40494e-09 2.29566e-10) (2.09976e-09 -2.29504e-09 6.80377e-10) (2.88499e-09 -2.72305e-09 -1.89938e-11) (3.73261e-09 -3.39621e-09 4.39077e-10) (4.53188e-09 -4.0792e-09 -2.67905e-10) (4.78151e-09 -4.52866e-09 2.08286e-10) (5.56472e-09 -5.15533e-09 6.85464e-10) (5.6949e-09 -5.47424e-09 -2.78106e-10) (5.71558e-09 -5.49412e-09 2.3442e-10)
2650          (-1.57061e-11 -1.65062e-10 3.03753e-11) (6.18808e-10 -7.86554e-10 5.11161e-10) (1.53923e-09 -1.32966e-09 5.26028e-10) (2.1598e-09 -1.97895e-09 5.77463e-10) (2.83749e-09 -2.84192e-09 -1.17353e-10) (3.50943e-09 -3.41873e-09 -2.97556e-10) (3.97488e-09 -3.75885e-09 -6.66417e-10) (4.51269e-09 -4.626e-09 -7.29025e-10) (5.29206e-09 -5.27881e-09 -1.36907e-10) (5.54311e-09 -5.22816e-09 -3.73228e-10) (5.33138e-09 -5.17134e-09 -7.40005e-10)
2700          (-5.49053e-11 -7.38995e-11 -8.47139e-12) (4.95019e-10 -4.69665e-10 -4.45512e-10) (1.55881e-09 -1.44604e-09 -3.06677e-10) (2.18489e-09 -1.96223e-09 -7.22768e-10) (2.71699e-09 -2.96416e-09 -4.46733e-10) (3.77e-09 -3.37747e-09 -4.01066e-10) (4.14815e-09 -3.9356e-09 8.30235e-11) (4.68049e-09 -4.61357e-09 -4.73109e-10) (5.42291e-09 -5.11081e-09 -3.82351e-10) (5.80126e-09 -5.56226e-09 -7.79787e-10) (5.64107e-09 -5.66482e-09 -9.61174e-10)
2750          (3.90721e-11 -7.17798e-11 -2.58648e-11) (4.76299e-10 -6.43025e-10 4.85768e-11) (1.69213e-09 -1.34343e-09 -4.09168e-10) (2.23499e-09 -2.13159e-09 -1.35046e-09) (2.79956e-09 -2.48408e-09 -5.04458e-10) (3.66917e-09 -3.42226e-09 -1.57484e-10) (4.24695e-09 -4.17109e-09 2.29628e-10) (4.75018e-09 -4.75439e-09 1.17917e-10) (5.29416e-09 -5.09254e-09 7.37639e-10) (5.53052e-09 -5.34504e-09 6.92728e-10) (5.55599e-09 -5.75263e-09 1.70802e-09)
2800          (2.61938e-11 -2.54808e-10 6.89326e-11) (6.75256e-10 -9.66504e-10 -2.98813e-10) (1.49728e-09 -1.58078e-09 -6.12875e-11) (2.25855e-09 -2.18732e-09 -1.12405e-09) (2.84915e-09 -2.74791e-09 -9.84944e-10) (3.30769e-09 -3.45293e-09 -8.98357e-10) (4.13609e-09 -4.18076e-09 -4.62292e-10) (4.6589e-09 -4.60279e-09 -8.29502e-10) (5.31966e-09 -5.02231e-09 -4.11168e-10) (5.50402e-09 -5.70625e-09 -1.17505e-09) (5.58878e-09 -5.43296e-09 -1.70714e-09)
2850          (-4.26016e-11 -1.04143e-10 -1.89574e-11) (5.91825e-10 -6.74629e-10 9.90342e-11) (1.31814e-09 -1.37727e-09 -9.2831e-11) (2.21974e-09 -2.16961e-09 1.42282e-10) (2.83027e-09 -2.78427e-09 -6.53557e-10) (3.36457e-09 -3.58529e-09 -3.61804e-10) (4.00209e-09 -3.94e-09 7.95319e-10) (4.74441e-09 -4.72244e-09 2.38643e-10) (5.41761e-09 -5.14105e-09 1.30372e-09) (5.59911e-09 -5.58486e-09 -4.8252e-10) (5.69616e-09 -5.00641e-09 8.87994e-10)
2900          (6.1839e-12 -1.04244e-10 -9.92387e-11) (7.14912e-10 -5.44144e-10 5.8937e-10) (1.57052e-09 -1.37331e-09 -6.23791e-10) (2.01572e-09 -2.15702e-09 -3.29924e-10) (2.68821e-09 -2.68519e-09 -5.40861e-11) (3.49586e-09 -3.55602e-09 -4.51057e-10) (4.12394e-09 -3.87752e-09 8.17818e-10) (4.55316e-09 -4.54294e-09 -3.91452e-10) (5.10043e-09 -5.35475e-09 1.96481e-11) (5.49879e-09 -5.66206e-09 2.1982e-10) (5.42288e-09 -5.47091e-09 -2.76194e-10)
2950          (6.98621e-11 -1.63685e-10 4.54982e-10) (7.89281e-10 -8.05262e-10 -2.85087e-10) (1.4109e-09 -1.5841e-09 -3.10013e-10) (2.32437e-09 -2.13794e-09 2.83429e-11) (2.77249e-09 -2.89733e-09 -4.97664e-10) (3.36489e-09 -3.5382e-09 -5.47507e-10) (4.07866e-09 -4.05235e-09 1.77198e-10) (4.56578e-09 -4.56034e-09 -7.11916e-10) (5.28421e-09 -5.36967e-09 7.49762e-11) (5.36067e-09 -5.57479e-09 -4.36466e-10) (5.64545e-09 -5.72643e-09 -1.24674e-09)
3000          (1.51866e-10 -1.2523e-10 1.28148e-10) (7.25011e-10 -6.33428e-10 -3.22777e-10) (1.32942e-09 -1.2708e-09 -5.36906e-10) (2.12648e-09 -2.08e-09 -1.43182e-09) (2.88009e-09 -2.61764e-09 -4.01671e-10) (3.6171e-09 -3.40433e-09 -8.49259e-10) (4.07638e-09 -4.32393e-09 -2.6574e-09) (4.7826e-09 -4.69926e-09 -1.61685e-09) (5.42213e-09 -5.28859e-09 -1.79417e-09) (5.7638e-09 -5.39495e-09 -2.31244e-09) (5.58302e-09 -5.61756e-09 -2.31439e-09)
3050          (1.11452e-10 -4.14043e-11 -4.80138e-11) (7.5735e-10 -6.62839e-10 -2.02723e-10) (1.65626e-09 -1.24916e-09 -6.80947e-11) (2.25076e-09 -2.09152e-09 5.47698e-10) (2.92359e-09 -2.71807e-09 -4.79408e-10) (3.48116e-09 -3.34794e-09 2.6298e-10) (4.16628e-09 -4.1043e-09 4.57588e-11) (4.93804e-09 -4.70096e-09 -3.64498e-10) (5.33798e-09 -4.83153e-09 5.99393e-10) (5.46956e-09 -5.62693e-09 4.21226e-10) (5.74115e-09 -5.60059e-09 -1.96976e-10)
3100          (1.47184e-10 -1.60902e-11 -8.52616e-11) (7.00099e-10 -6.98485e-10 7.79983e-10) (1.79034e-09 -1.38154e-09 -7.40829e-10) (2.30204e-09 -1.9803e-09 3.66202e-10) (2.76753e-09 -2.66026e-09 -4.61479e-11) (3.54887e-09 -3.32135e-09 1.15064e-09) (4.28212e-09 -4.19674e-09 1.56948e-09) (4.67788e-09 -4.56022e-09 1.27731e-09) (5.28149e-09 -5.29461e-09 1.95579e-09) (5.16553e-09 -5.43772e-09 1.3754e-09) (5.9687e-09 -5.51972e-09 1.55574e-09)
3150          (2.67974e-11 -1.56798e-10 -2.67371e-10) (5.04435e-10 -5.4662e-10 1.88214e-10) (1.37437e-09 -1.44533e-09 3.96298e-10) (2.00725e-09 -2.23745e-09 5.55295e-10) (2.77981e-09 -2.8449e-09 -1.84109e-10) (3.83385e-09 -3.41501e-09 -8.64966e-11) (4.29337e-09 -4.04714e-09 -5.90018e-10) (4.49953e-09 -4.83773e-09 -5.32265e-10) (5.49066e-09 -5.21333e-09 4.66474e-10) (6.14697e-09 -5.75336e-09 1.22814e-09) (5.67193e-09 -5.68027e-09 1.69559e-09)
3200          (1.35891e-10 -2.1264e-10 -1.95592e-11) (6.59705e-10 -5.43178e-10 -9.03773e-11) (1.44096e-09 -1.30623e-09 -1.32408e-10) (2.05493e-09 -1.9276e-09 -3.28673e-10) (2.79514e-09 -2.60253e-09 -7.55674e-10) (3.38933e-09 -3.39662e-09 -1.35006e-09) (4.17687e-09 -3.91038e-09 -1.35976e-09) (4.50948e-09 -4.54912e-09 5.37087e-11) (5.44172e-09 -5.13118e-09 1.69694e-10) (5.46565e-09 -5.46535e-09 2.7011e-10) (5.57208e-09 -5.53454e-09 1.00368e-09)
3250          (8.55077e-11 -1.15696e-10 -1.1715e-10) (6.20767e-10 -5.12689e-10 -4.89718e-10) (1.44305e-09 -1.24859e-09 -4.39868e-10) (2.29472e-09 -2.19704e-09 1.1027e-11) (2.77478e-09 -2.93834e-09 2.02893e-10) (3.57427e-09 -3.44106e-09 1.80437e-10) (3.92826e-09 -4.02145e-09 4.93216e-10) (4.79757e-09 -4.53816e-09 8.40026e-10) (5.3174e-09 -5.09036e-09 1.35725e-09) (5.66518e-09 -5.55643e-09 9.29566e-10) (5.48169e-09 -5.50211e-09 1.69677e-09)
3300          (-8.28849e-11 -1.06169e-10 -3.16543e-11) (6.95596e-10 -7.52051e-10 -1.28193e-10) (1.60354e-09 -1.42325e-09 -2.96754e-10) (2.17514e-09 -2.13984e-09 -1.62941e-10) (2.758e-09 -2.85026e-09 -1.0145e-10) (3.18215e-09 -3.25087e-09 5.96728e-10) (3.80776e-09 -4.08717e-09 5.08689e-10) (4.31421e-09 -4.28186e-09 6.66855e-10) (5.15718e-09 -5.037e-09 1.17392e-09) (5.78164e-09 -5.32816e-09 1.11862e-09) (5.62532e-09 -5.63682e-09 3.29198e-10)