# Probe 0 (0.0015 0.0015 0)
# Probe 1 (0.0015 0.0015 0.002)
# Probe 2 (0.0015 0.0015 0.004)
# Probe 3 (0.0015 0.0015 0.006)
# Probe 4 (0.0015 0.0015 0.008)
# Probe 5 (0.0015 0.0015 0.01)
# Probe 6 (0.0015 0.0015 0.012)
# Probe 7 (0.0015 0.0015 0.014)
# Probe 8 (0.0015 0.0015 0.016)
# Probe 9 (0.0015 0.0015 0.018)
# Probe 10 (0.0015 0.0015 0.02)
# Time        0             1             2             3             4             5             6             7             8             9             10           
50            (51.4784 51.4784 -3.7395e+07) (-56.2864 -56.2864 -2.85099e+07) (-0.649773 -0.649773 -1.28595e+07) (-0.37437 -0.37437 -5.12449e+06) (-1.65358 -1.65358 -1.95534e+06) (5.08526 5.08526 -791274) (2.78287 2.78287 -498099) (-1.29572 -1.29572 -739488) (-0.5701 -0.5701 -1.66273e+06) (2.6978 2.6978 -3.85213e+06) (4.75551 4.75551 -8.32751e+06)
100           (-57.4611 -57.4611 -2.92536e+07) (-74.6413 -74.6413 -2.60312e+07) (25.0891 25.0891 -1.70381e+07) (56.4028 56.4028 -9.09422e+06) (33.6306 33.6306 -4.35649e+06) (21.9777 21.9777 -2.0941e+06) (15.0269 15.0269 -1.29744e+06) (8.93104 8.93104 -1.43215e+06) (12.403 12.403 -2.38742e+06) (10.9836 10.9836 -4.26946e+06) (-2.5822 -2.5822 -7.06927e+06)
150           (132.589 132.589 -2.44912e+07) (32.2022 32.2022 -2.28361e+07) (5.99619 5.99619 -1.7662e+07) (-35.8345 -35.8345 -1.15581e+07) (-35.1754 -35.1754 -6.64343e+06) (-22.174 -22.174 -3.67769e+06) (-13.8304 -13.8304 -2.34638e+06) (-13.2602 -13.2602 -2.18756e+06) (-13.5742 -13.5742 -2.91985e+06) (0.0425599 0.0425599 -4.37423e+06) (25.1925 25.1925 -6.26203e+06)
200           (-153.631 -153.631 -2.14645e+07) (-77.497 -77.497 -2.04289e+07) (-43.645 -43.645 -1.70946e+07) (27.7018 27.7018 -1.26746e+07) (54.5302 54.5302 -8.37424e+06) (51.4143 51.4143 -5.22031e+06) (42.2658 42.2658 -3.48727e+06) (29.9849 29.9849 -2.97058e+06) (12.8217 12.8217 -3.37344e+06) (4.53866 4.53866 -4.41188e+06) (-25.9303 -25.9303 -5.72138e+06)
250           (51.9659 51.9659 -1.93543e+07) (18.3146 18.3146 -1.86356e+07) (14.756 14.756 -1.62948e+07) (0.744866 0.744866 -1.30336e+07) (-13.1417 -13.1417 -9.50973e+06) (-14.7528 -14.7528 -6.5277e+06) (-12.3463 -12.3463 -4.59105e+06) (-9.65747 -9.65747 -3.75319e+06) (-6.55311 -6.55311 -3.81053e+06) (-5.07437 -5.07437 -4.47114e+06) (12.9023 12.9023 -5.36787e+06)
300           (30.4169 30.4169 -1.7792e+07) (9.59979 9.59979 -1.72611e+07) (8.55016 8.55016 -1.55225e+07) (2.87274 2.87274 -1.30389e+07) (-5.23203 -5.23203 -1.01936e+07) (-8.63283 -8.63283 -7.54004e+06) (-7.37677 -7.37677 -5.57334e+06) (-5.20766 -5.20766 -4.50208e+06) (-3.82154 -3.82154 -4.24931e+06) (-4.58354 -4.58354 -4.5773e+06) (5.4599 5.4599 -5.15526e+06)
350           (161.112 161.112 -1.65875e+07) (99.4257 99.4257 -1.6179e+07) (86.8858 86.8858 -1.48367e+07) (35.792 35.792 -1.28906e+07) (-20.7909 -20.7909 -1.05809e+07) (-63.1555 -63.1555 -8.28162e+06) (-76.4975 -76.4975 -6.39742e+06) (-64.7772 -64.7772 -5.18948e+06) (-40.1378 -40.1378 -4.68665e+06) (-16.2635 -16.2635 -4.73182e+06) (21.7957 21.7957 -5.05293e+06)
400           (-161.395 -161.395 -1.56314e+07) (-90.6522 -90.6522 -1.53075e+07) (-87.7756 -87.7756 -1.42416e+07) (-50.8856 -50.8856 -1.26805e+07) (0.384607 0.384607 -1.07835e+07) (48.3821 48.3821 -8.80744e+06) (72.2068 72.2068 -7.06158e+06) (67.5445 67.5445 -5.79849e+06) (49.3089 49.3089 -5.11258e+06) (26.7092 26.7092 -4.92662e+06) (-14.8551 -14.8551 -5.03825e+06)
450           (-125.173 -125.173 -1.48556e+07) (-71.4864 -71.4864 -1.4593e+07) (-71.363 -71.363 -1.37274e+07) (-46.4586 -46.4586 -1.24504e+07) (-10.3967 -10.3967 -1.08719e+07) (26.6913 26.6913 -9.17251e+06) (51.2746 51.2746 -7.58341e+06) (55.1081 55.1081 -6.3235e+06) (44.5756 44.5756 -5.51695e+06) (27.3342 27.3342 -5.15113e+06) (-2.40128 -2.40128 -5.09293e+06)
500           (-96.4767 -96.4767 -1.42147e+07) (-56.3997 -56.3997 -1.39978e+07) (-57.0231 -57.0231 -1.32819e+07) (-40.0486 -40.0486 -1.22199e+07) (-14.9493 -14.9493 -1.08896e+07) (12.4748 12.4748 -9.42115e+06) (34.5016 34.5016 -7.9871e+06) (43.5172 43.5172 -6.76761e+06) (39.9408 39.9408 -5.89255e+06) (27.5238 27.5238 -5.39427e+06) (6.53812 6.53812 -5.20171e+06)
550           (-75.4148 -75.4148 -1.3677e+07) (-44.9607 -44.9607 -1.34951e+07) (-45.9291 -45.9291 -1.2894e+07) (-34.0042 -34.0042 -1.19979e+07) (-16.1649 -16.1649 -1.08635e+07) (3.82864 3.82864 -9.58643e+06) (21.8224 21.8224 -8.29652e+06) (32.5461 32.5461 -7.13874e+06) (34.0439 34.0439 -6.23557e+06) (26.3929 26.3929 -5.64657e+06) (12.8516 12.8516 -5.3515e+06)
600           (-59.2961 -59.2961 -1.32201e+07) (-35.9236 -35.9236 -1.30654e+07) (-37.0581 -37.0581 -1.2554e+07) (-28.5494 -28.5494 -1.17883e+07) (-15.6583 -15.6583 -1.08106e+07) (-1.05656 -1.05656 -9.69236e+06) (13.0292 13.0292 -8.53248e+06) (23.4309 23.4309 -7.44685e+06) (27.8943 27.8943 -6.54506e+06) (24.2091 24.2091 -5.9004e+06) (16.8765 16.8765 -5.53108e+06)
650           (-46.8899 -46.8899 -1.28272e+07) (-28.7841 -28.7841 -1.26942e+07) (-29.9611 -29.9611 -1.22541e+07) (-23.7969 -23.7969 -1.15927e+07) (-14.3413 -14.3413 -1.07419e+07) (-3.58723 -3.58723 -9.75617e+06) (7.24186 7.24186 -8.71197e+06) (16.4084 16.4084 -7.70213e+06) (22.1624 22.1624 -6.82216e+06) (21.3758 21.3758 -6.15004e+06) (19.0571 19.0571 -5.73088e+06)
700           (-37.3694 -37.3694 -1.24861e+07) (-23.2068 -23.2068 -1.23706e+07) (-24.3271 -24.3271 -1.19879e+07) (-19.7603 -19.7603 -1.14111e+07) (-12.7171 -12.7171 -1.06645e+07) (-4.6983 -4.6983 -9.79023e+06) (3.59007 3.59007 -8.84841e+06) (11.2542 11.2542 -7.914e+06) (17.1816 17.1816 -7.06926e+06) (18.2971 18.2971 -6.39145e+06) (19.8907 19.8907 -5.9429e+06)
750           (63.8578 63.8578 -1.21872e+07) (39.9736 39.9736 -1.2086e+07) (39.6786 39.6786 -1.17503e+07) (31.9909 31.9909 -1.1243e+07) (21.4291 21.4291 -1.0583e+07) (8.09378 8.09378 -9.80346e+06) (-5.8945 -5.8945 -8.95224e+06) (-17.8734 -17.8734 -8.09062e+06) (-24.5901 -24.5901 -7.2893e+06) (-26.6415 -26.6415 -6.62189e+06) (-36.9559 -36.9559 -6.1605e+06)
800           (-10.9251 -10.9251 -1.19232e+07) (-7.58161 -7.58161 -1.18339e+07) (-7.79253 -7.79253 -1.15371e+07) (-5.74161 -5.74161 -1.10878e+07) (-4.44502 -4.44502 -1.05006e+07) (-3.56059 -3.56059 -9.80232e+06) (-3.17216 -3.17216 -9.0316e+06) (-2.89022 -2.89022 -8.23914e+06) (-1.26819 -1.26819 -7.48579e+06) (4.03711 4.03711 -6.84e+06) (12.5399 12.5399 -6.37841e+06)
850           (-12.1943 -12.1943 -1.16886e+07) (-8.60753 -8.60753 -1.16092e+07) (-8.50021 -8.50021 -1.13452e+07) (-6.31447 -6.31447 -1.09446e+07) (-4.51062 -4.51062 -1.04195e+07) (-2.8047 -2.8047 -9.79139e+06) (-1.42493 -1.42493 -9.09223e+06) (-0.344138 -0.344138 -8.36453e+06) (1.30341 1.30341 -7.66105e+06) (5.45159 5.45159 -7.04478e+06) (11.5554 11.5554 -6.59303e+06)
900           (-11.5053 -11.5053 -1.14789e+07) (-8.15316 -8.15316 -1.14079e+07) (-8.01059 -8.01059 -1.11718e+07) (-5.99048 -5.99048 -1.08128e+07) (-4.18485 -4.18485 -1.0341e+07) (-2.30935 -2.30935 -9.77406e+06) (-0.582651 -0.582651 -9.13882e+06) (0.891986 0.891986 -8.47142e+06) (2.59987 2.59987 -7.81801e+06) (5.84979 5.84979 -7.23613e+06) (9.71554 9.71554 -6.80118e+06)
950           (-10.5527 -10.5527 -1.12906e+07) (-7.61613 -7.61613 -1.12268e+07) (-7.58889 -7.58889 -1.10145e+07) (-5.78783 -5.78783 -1.06915e+07) (-4.08956 -4.08956 -1.02659e+07) (-2.20098 -2.20098 -9.75282e+06) (-0.317962 -0.317962 -9.17493e+06) (1.38762 1.38762 -8.56346e+06) (3.15625 3.15625 -7.95907e+06) (5.73073 5.73073 -7.41415e+06) (7.73181 7.73181 -7.00064e+06)
1000          (-9.58312 -9.58312 -1.11208e+07) (-7.08227 -7.08227 -1.10632e+07) (-7.20746 -7.20746 -1.08716e+07) (-5.62721 -5.62721 -1.05799e+07) (-4.0756 -4.0756 -1.01949e+07) (-2.25346 -2.25346 -9.72945e+06) (-0.329831 -0.329831 -9.20323e+06) (1.49419 1.49419 -8.64348e+06) (3.30906 3.30906 -8.08626e+06) (5.40026 5.40026 -7.57922e+06) (6.01181 6.01181 -7.18995e+06)
1050          (-8.72071 -8.72071 -1.0967e+07) (-6.60075 -6.60075 -1.09149e+07) (-6.85992 -6.85992 -1.07415e+07) (-5.47609 -5.47609 -1.04773e+07) (-4.07154 -4.07154 -1.01281e+07) (-2.34698 -2.34698 -9.70522e+06) (-0.446729 -0.446729 -9.22573e+06) (1.421 1.421 -8.71368e+06) (3.26007 3.26007 -8.2013e+06) (5.01554 5.01554 -7.73186e+06) (4.68981 4.68981 -7.36823e+06)
1100          (-7.97963 -7.97963 -1.08275e+07) (-6.16958 -6.16958 -1.07802e+07) (-6.52747 -6.52747 -1.06229e+07) (-5.30976 -5.30976 -1.0383e+07) (-4.03878 -4.03878 -1.00658e+07) (-2.42135 -2.42135 -9.68101e+06) (-0.580673 -0.580673 -9.24388e+06) (1.27975 1.27975 -8.77578e+06) (3.1169 3.1169 -8.30562e+06) (4.63847 4.63847 -7.87271e+06) (3.73643 3.73643 -7.53508e+06)
1150          (-7.33428 -7.33428 -1.07007e+07) (-5.77041 -5.77041 -1.06577e+07) (-6.19128 -6.19128 -1.05146e+07) (-5.11235 -5.11235 -1.02965e+07) (-3.95968 -3.95968 -1.00078e+07) (-2.45089 -2.45089 -9.65741e+06) (-0.691745 -0.691745 -9.25878e+06) (1.12495 1.12495 -8.8311e+06) (2.93317 2.93317 -8.40041e+06) (4.28574 4.28574 -8.00243e+06) (3.06467 3.06467 -7.69043e+06)
1200          (-6.7562 -6.7562 -1.05851e+07) (-5.38828 -5.38828 -1.0546e+07) (-5.84229 -5.84228 -1.04157e+07) (-4.87982 -4.87982 -1.0217e+07) (-3.83191 -3.83191 -9.95414e+06) (-2.43026 -2.43026 -9.6348e+06) (-0.76629 -0.76629 -9.27123e+06) (0.980586 0.980586 -8.88068e+06) (2.73524 2.73524 -8.4867e+06) (3.95814 3.95814 -8.12172e+06) (2.58776 2.58776 -7.83449e+06)
1250          (-6.22576 -6.22576 -1.04797e+07) (-5.01608 -5.01608 -1.0444e+07) (-5.48053 -5.48053 -1.03253e+07) (-4.6169 -4.6169 -1.01442e+07) (-3.66251 -3.66251 -9.90458e+06) (-2.365 -2.365 -9.61343e+06) (-0.804082 -0.804082 -9.28181e+06) (0.85515 0.85515 -8.92533e+06) (2.53626 2.53626 -8.56534e+06) (3.65293 3.65293 -8.23128e+06) (2.23902 2.23902 -7.96761e+06)
1300          (-19.6615 -19.6615 -1.03836e+07) (-13.7097 -13.7097 -1.0351e+07) (-12.5397 -12.5397 -1.02427e+07) (-9.87576 -9.87576 -1.00775e+07) (-6.5618 -6.5618 -9.85894e+06) (-2.50641 -2.50641 -9.5934e+06) (2.05766 2.05766 -9.29091e+06) (6.78862 6.78862 -8.96566e+06) (11.2832 11.2832 -8.63702e+06) (15.1536 15.1536 -8.33172e+06) (18.8693 18.8693 -8.09036e+06)
1350          (-25.8939 -25.8939 -1.02958e+07) (-18.561 -18.561 -1.0266e+07) (-17.1743 -17.1743 -1.01671e+07) (-14.1419 -14.1419 -1.00164e+07) (-10.0827 -10.0827 -9.81698e+06) (-4.99371 -4.99371 -9.57476e+06) (0.875825 0.875825 -9.29888e+06) (7.14894 7.14894 -9.00226e+06) (13.297 13.297 -8.70248e+06) (18.7578 18.7578 -8.42384e+06) (26.2398 26.2398 -8.20322e+06)
1400          (-23.8332 -23.8332 -1.02156e+07) (-17.1023 -17.1023 -1.01884e+07) (-15.8368 -15.8368 -1.00981e+07) (-13.0559 -13.0559 -9.96049e+06) (-9.33685 -9.33685 -9.7785e+06) (-4.6595 -4.6595 -9.55755e+06) (0.758415 0.758415 -9.30596e+06) (6.57618 6.57618 -9.03552e+06) (12.3123 12.3123 -8.76225e+06) (17.4336 17.4336 -8.50818e+06) (24.4234 24.4234 -8.3068e+06)
1450          (-21.8681 -21.8681 -1.01423e+07) (-15.7004 -15.7004 -1.01174e+07) (-14.5511 -14.5511 -1.0035e+07) (-12.0045 -12.0045 -9.90934e+06) (-8.59409 -8.59409 -9.74327e+06) (-4.30346 -4.30346 -9.54171e+06) (0.670433 0.670433 -9.31232e+06) (6.02083 6.02083 -9.06583e+06) (11.3119 11.3119 -8.81683e+06) (16.0506 16.0506 -8.58533e+06) (22.5102 22.5102 -8.40171e+06)
1500          (-20.0324 -20.0324 -1.00753e+07) (-14.3831 -14.3831 -1.00526e+07) (-13.331 -13.331 -9.97727e+06) (-11.0041 -11.0041 -9.86259e+06) (-7.88525 -7.88525 -9.71104e+06) (-3.95735 -3.95735 -9.5272e+06) (0.599537 0.599537 -9.31808e+06) (5.5058 5.5058 -9.09348e+06) (10.3653 10.3653 -8.86668e+06) (14.7234 14.7234 -8.65587e+06) (20.6531 20.6531 -8.48858e+06)
1550          (-18.3189 -18.3189 -1.00141e+07) (-13.1549 -13.1549 -9.99335e+06) (-12.1954 -12.1954 -9.92456e+06) (-10.0667 -10.0667 -9.81987e+06) (-7.21441 -7.21441 -9.68159e+06) (-3.62355 -3.62355 -9.51393e+06) (0.54282 0.54282 -9.32332e+06) (5.03094 5.03094 -9.11872e+06) (9.48093 9.48093 -8.91221e+06) (13.475 13.475 -8.72032e+06) (18.8973 18.8973 -8.568e+06)
1600          (-16.7337 -16.7337 -9.95813e+06) (-12.0152 -12.0152 -9.93922e+06) (-11.1374 -11.1374 -9.87641e+06) (-9.19324 -9.19324 -9.78086e+06) (-6.58835 -6.58835 -9.6547e+06) (-3.30901 -3.30901 -9.50183e+06) (0.495456 0.495455 -9.32812e+06) (4.59407 4.59407 -9.14177e+06) (8.66034 8.66034 -8.95379e+06) (12.3122 12.3122 -8.77917e+06) (17.259 17.259 -8.64056e+06)
1650          (-15.2699 -15.2699 -9.90705e+06) (-10.9631 -10.9631 -9.88978e+06) (-10.1612 -10.1612 -9.83243e+06) (-8.38511 -8.38511 -9.74524e+06) (-6.00701 -6.00701 -9.63017e+06) (-3.01494 -3.01494 -9.49079e+06) (0.455005 0.455005 -9.33252e+06) (4.19283 4.19283 -9.16283e+06) (7.90242 7.90242 -8.99175e+06) (11.2356 11.2356 -8.8329e+06) (15.7418 15.7418 -8.70679e+06)
1700          (-13.9242 -13.9242 -9.8604e+06) (-9.99492 -9.99492 -9.84464e+06) (-9.26164 -9.26164 -9.79229e+06) (-7.64043 -7.64043 -9.71274e+06) (-5.47098 -5.47098 -9.6078e+06) (-2.74284 -2.74284 -9.48075e+06) (0.419467 0.419467 -9.33656e+06) (3.82485 3.82485 -9.18207e+06) (7.2049 7.2049 -9.0264e+06) (10.2433 10.2433 -8.88192e+06) (14.3439 14.3439 -8.76722e+06)
1750          (-12.6891 -12.6891 -9.81781e+06) (-9.10658 -9.10658 -9.80342e+06) (-8.43642 -8.43642 -9.75566e+06) (-6.95682 -6.95682 -9.68309e+06) (-4.97846 -4.97846 -9.5874e+06) (-2.49239 -2.49239 -9.47162e+06) (0.387621 0.387621 -9.34029e+06) (3.48776 3.48776 -9.19965e+06) (6.56475 6.56475 -9.05802e+06) (9.33175 9.33175 -8.92662e+06) (13.0605 13.0605 -8.82233e+06)
1800          (-11.5584 -11.5584 -9.77893e+06) (-8.29308 -8.29308 -9.76581e+06) (-7.68059 -7.68059 -9.72223e+06) (-6.33084 -6.33084 -9.65605e+06) (-4.52756 -4.52756 -9.56882e+06) (-2.26306 -2.26306 -9.46332e+06) (0.358599 0.358599 -9.34372e+06) (3.17926 3.17926 -9.2157e+06) (5.97849 5.97849 -9.08686e+06) (8.49655 8.49655 -8.96739e+06) (11.8854 11.8854 -8.87256e+06)
1850          (-10.5244 -10.5244 -9.74346e+06) (-7.54941 -7.54941 -9.73149e+06) (-6.98982 -6.98982 -9.69174e+06) (-5.75886 -5.75885 -9.6314e+06) (-4.11565 -4.11565 -9.55189e+06) (-2.05372 -2.05372 -9.45578e+06) (0.331857 0.331857 -9.34687e+06) (2.89718 2.89718 -9.23037e+06) (5.44249 5.44249 -9.11317e+06) (7.73281 7.73281 -9.00454e+06) (10.8117 10.8117 -8.91834e+06)
1900          (-9.58015 -9.58015 -9.7111e+06) (-6.87039 -6.87039 -9.70018e+06) (-6.35924 -6.35924 -9.66394e+06) (-5.23697 -5.23697 -9.60893e+06) (-3.74009 -3.74009 -9.53648e+06) (-1.86311 -1.86311 -9.44893e+06) (0.307026 0.307026 -9.34978e+06) (2.63942 2.63942 -9.24376e+06) (4.95306 4.95306 -9.13717e+06) (7.03546 7.03546 -9.03841e+06) (9.83208 9.83208 -8.96004e+06)
1950          (-8.71859 -8.71859 -9.68159e+06) (-6.25103 -6.25103 -9.67163e+06) (-5.78428 -5.78428 -9.63859e+06) (-4.76135 -4.76135 -9.58846e+06) (-3.39809 -3.39809 -9.52245e+06) (-1.68987 -1.68987 -9.44272e+06) (0.283872 0.283872 -9.35245e+06) (2.40404 2.40404 -9.25599e+06) (4.5066 4.5066 -9.15904e+06) (6.39945 6.39945 -9.06925e+06) (8.93934 8.93934 -8.99802e+06)
2000          (-7.93306 -7.93306 -9.65468e+06) (-5.6865 -5.6865 -9.6456e+06) (-5.26042 -5.26042 -9.61549e+06) (-4.32827 -4.32827 -9.5698e+06) (-3.08696 -3.08696 -9.50967e+06) (-1.5326 -1.5326 -9.43707e+06) (0.262235 0.262235 -9.35491e+06) (2.18921 2.18921 -9.26714e+06) (4.09964 4.09964 -9.17898e+06) (5.81989 5.81989 -9.09735e+06) (8.12644 8.12644 -9.03261e+06)
2050          (-7.21725 -7.21725 -9.63015e+06) (-5.17225 -5.17225 -9.62188e+06) (-4.78342 -4.78342 -9.59444e+06) (-3.93418 -3.93418 -9.55282e+06) (-2.8041 -2.8041 -9.49805e+06) (-1.38995 -1.38995 -9.43195e+06) (0.242005 0.242005 -9.35717e+06) (1.99323 1.99323 -9.27732e+06) (3.72891 3.72891 -9.19715e+06) (5.29212 5.29212 -9.12294e+06) (7.38671 7.38671 -9.06409e+06)
2100          (-6.56526 -6.56526 -9.60779e+06) (-4.70401 -4.70401 -9.60026e+06) (-4.34927 -4.34927 -9.57526e+06) (-3.57572 -3.57572 -9.53734e+06) (-2.54707 -2.54707 -9.48747e+06) (-1.26063 -1.26063 -9.42729e+06) (0.223099 0.223099 -9.35924e+06) (1.8145 1.8145 -9.28661e+06) (3.39135 3.39135 -9.2137e+06) (4.81173 4.81173 -9.14624e+06) (6.71386 6.71386 -9.09276e+06)
2150          (-5.97161 -5.97161 -9.58743e+06) (-4.27781 -4.27781 -9.58056e+06) (-3.95426 -3.95426 -9.55778e+06) (-3.24978 -3.24978 -9.52326e+06) (-2.31359 -2.31359 -9.47785e+06) (-1.14344 -1.14344 -9.42307e+06) (0.205451 0.205451 -9.36115e+06) (1.65157 1.65157 -9.29507e+06) (3.08408 3.08408 -9.22878e+06) (4.37465 4.37465 -9.16746e+06) (6.10205 6.10205 -9.11884e+06)
2200          (-2.44062 -2.44062 -9.56888e+06) (-3.71926 -3.71926 -9.56262e+06) (-2.22453 -2.22453 -9.54188e+06) (-2.13107 -2.13107 -9.51044e+06) (-1.83415 -1.83415 -9.46909e+06) (-1.36802 -1.36802 -9.41923e+06) (-0.758116 -0.758116 -9.36289e+06) (-0.0498315 -0.0498315 -9.30278e+06) (0.652307 0.652307 -9.2425e+06) (1.61717 1.61717 -9.18675e+06) (0.914441 0.914441 -9.14258e+06)
2250          (-15.3216 -15.3216 -9.55197e+06) (-10.2588 -10.2588 -9.54628e+06) (-8.83717 -8.83717 -9.52739e+06) (-9.94286 -9.94286 -9.49876e+06) (-8.79762 -8.79762 -9.46112e+06) (-6.56644 -6.56644 -9.41574e+06) (-3.56503 -3.56503 -9.36448e+06) (0.0948974 0.0948974 -9.30982e+06) (3.09472 3.09472 -9.25501e+06) (7.24457 7.24457 -9.20434e+06) (20.3672 20.3672 -9.16419e+06)
2300          (8.9795 8.9795 -9.53659e+06) (4.45284 4.45284 -9.53141e+06) (4.84148 4.84148 -9.51421e+06) (7.10591 7.10591 -9.48814e+06) (8.91837 8.91837 -9.45387e+06) (8.57664 8.57664 -9.41258e+06) (6.71948 6.71948 -9.36594e+06) (4.16846 4.16846 -9.31622e+06) (0.153327 0.153327 -9.26638e+06) (-8.2398 -8.2398 -9.22033e+06) (-23.6745 -23.6745 -9.18385e+06)
2350          (15.7294 15.7294 -9.52258e+06) (11.6212 11.6212 -9.51785e+06) (11.2849 11.2849 -9.50219e+06) (7.95618 7.95618 -9.47846e+06) (3.69829 3.69829 -9.44728e+06) (-0.182384 -0.182384 -9.40971e+06) (-3.34906 -3.34906 -9.36728e+06) (-5.66053 -5.66053 -9.32207e+06) (-6.40864 -6.40864 -9.27675e+06) (-5.02452 -5.02452 -9.23488e+06) (-7.92886 -7.92886 -9.20172e+06)
2400          (6.5556 6.5556 -9.50982e+06) (4.01561 4.01561 -9.50552e+06) (6.14012 6.14012 -9.49126e+06) (7.54409 7.54409 -9.46966e+06) (8.55739 8.55739 -9.44128e+06) (8.33037 8.33037 -9.40709e+06) (6.39281 6.39281 -9.3685e+06) (2.60003 2.60003 -9.32738e+06) (-2.92824 -2.92824 -9.28618e+06) (-9.24064 -9.24064 -9.24813e+06) (-18.9892 -18.9892 -9.218e+06)
2450          (14.4297 14.4297 -9.4982e+06) (10.2161 10.2161 -9.49428e+06) (8.76216 8.76216 -9.48131e+06) (5.72311 5.72311 -9.46165e+06) (2.39052 2.39052 -9.43583e+06) (-0.570904 -0.570904 -9.40473e+06) (-2.68013 -2.68013 -9.36963e+06) (-3.77053 -3.77053 -9.33223e+06) (-4.05617 -4.05617 -9.29477e+06) (-3.94724 -3.94724 -9.26018e+06) (-8.1284 -8.1284 -9.23279e+06)
2500          (4.67237 4.67237 -9.48763e+06) (3.02282 3.02282 -9.48407e+06) (5.61977 5.61977 -9.47226e+06) (7.11654 7.11654 -9.45437e+06) (7.79188 7.79188 -9.43087e+06) (7.15643 7.15643 -9.40257e+06) (4.96406 4.96406 -9.37065e+06) (1.33322 1.33322 -9.33664e+06) (-3.2282 -3.2282 -9.30259e+06) (-7.78509 -7.78509 -9.27114e+06) (-15.0933 -15.0933 -9.24625e+06)
2550          (12.5977 12.5977 -9.478e+06) (8.76496 8.76496 -9.47476e+06) (6.96952 6.96952 -9.46401e+06) (4.16629 4.16629 -9.44774e+06) (1.5179 1.5179 -9.42637e+06) (-0.556954 -0.556954 -9.40063e+06) (-1.87722 -1.87722 -9.37159e+06) (-2.55011 -2.55011 -9.34066e+06) (-2.9373 -2.9373 -9.3097e+06) (-3.33404 -3.33404 -9.28112e+06) (-7.31632 -7.31632 -9.25849e+06)
2600          (3.48801 3.48801 -9.46925e+06) (2.34473 2.34473 -9.4663e+06) (4.92267 4.92267 -9.45652e+06) (6.36317 6.36317 -9.44171e+06) (6.81014 6.81014 -9.42226e+06) (5.96134 5.96134 -9.39885e+06) (3.81672 3.81672 -9.37244e+06) (0.670577 0.670577 -9.34432e+06) (-2.96935 -2.96935 -9.31617e+06) (-6.41248 -6.41248 -9.29019e+06) (-12.1654 -12.1654 -9.26962e+06)
2650          (10.7338 10.7338 -9.46127e+06) (7.39134 7.39134 -9.45859e+06) (5.60365 5.60365 -9.4497e+06) (3.13973 3.13973 -9.43622e+06) (1.0286 1.0286 -9.41854e+06) (-0.461651 -0.461651 -9.39724e+06) (-1.33763 -1.33763 -9.37322e+06) (-1.82443 -1.82443 -9.34766e+06) (-2.26057 -2.26057 -9.32206e+06) (-2.81555 -2.81555 -9.29844e+06) (-6.31505 -6.31505 -9.27974e+06)
2700          (2.69992 2.69992 -9.45403e+06) (1.86721 1.86721 -9.45158e+06) (4.21531 4.21531 -9.44349e+06) (5.50168 5.50168 -9.43123e+06) (5.80053 5.80053 -9.41514e+06) (4.92424 4.92424 -9.39577e+06) (2.9915 2.9915 -9.37393e+06) (0.342415 0.342415 -9.35069e+06) (-2.58342 -2.58342 -9.32742e+06) (-5.27383 -5.27383 -9.30595e+06) (-9.89974 -9.89974 -9.28895e+06)
2750          (9.02736 9.02736 -9.44743e+06) (6.17666 6.17666 -9.44521e+06) (4.54746 4.54746 -9.43784e+06) (2.44261 2.44261 -9.4267e+06) (0.744183 0.744183 -9.41206e+06) (-0.371564 -0.371564 -9.39445e+06) (-0.993267 -0.993267 -9.37458e+06) (-1.37146 -1.37146 -9.35345e+06) (-1.79495 -1.79495 -9.33229e+06) (-2.36084 -2.36084 -9.31277e+06) (-5.34554 -5.34554 -9.29732e+06)
2800          (2.14364 2.14364 -9.44143e+06) (1.51152 1.51152 -9.43941e+06) (3.55961 3.55961 -9.43271e+06) (4.66653 4.66653 -9.42257e+06) (4.87415 4.87415 -9.40926e+06) (4.06188 4.06188 -9.39324e+06) (2.38835 2.38835 -9.37517e+06) (0.180083 0.180083 -9.35596e+06) (-2.19463 -2.19463 -9.33673e+06) (-4.34347 -4.34347 -9.31898e+06) (-8.1062 -8.1062 -9.30494e+06)
2850          (7.53782 7.53782 -9.43597e+06) (5.13736 5.13736 -9.43413e+06) (3.71608 3.71608 -9.42804e+06) (1.94441 1.94441 -9.41882e+06) (0.565257 0.565257 -9.40671e+06) (-0.29976 -0.29976 -9.39214e+06) (-0.76524 -0.76524 -9.37572e+06) (-1.06843 -1.06843 -9.35824e+06) (-1.45015 -1.45015 -9.34076e+06) (-1.96882 -1.96882 -9.32463e+06) (-4.47847 -4.47847 -9.31186e+06)
2900          (1.73004 1.73004 -9.431e+06) (1.23519 1.23519 -9.42933e+06) (2.98057 2.98057 -9.42379e+06) (3.91553 3.91553 -9.4154e+06) (4.0665 4.0665 -9.40439e+06) (3.35167 3.35167 -9.39114e+06) (1.93195 1.93195 -9.37621e+06) (0.0986902 0.0986902 -9.36032e+06) (-1.84233 -1.84233 -9.34442e+06) (-3.58226 -3.58226 -9.32976e+06) (-6.66319 -6.66319 -9.31816e+06)
2950          (24.1963 24.1963 -9.42649e+06) (20.9291 20.9291 -9.42497e+06) (18.2217 18.2217 -9.41993e+06) (16.4049 16.4049 -9.4123e+06) (13.5962 13.5962 -9.40228e+06) (9.79432 9.79432 -9.39024e+06) (4.998 4.998 -9.37665e+06) (-0.663632 -0.663632 -9.36221e+06) (-6.82279 -6.82279 -9.34775e+06) (-13.3718 -13.3718 -9.33442e+06) (-23.9018 -23.9018 -9.32388e+06)
3000          (-33.749 -33.749 -9.42234e+06) (-24.3897 -24.3897 -9.42096e+06) (-24.6287 -24.6287 -9.41638e+06) (-21.8397 -21.8397 -9.40944e+06) (-17.3499 -17.3499 -9.40035e+06) (-11.3638 -11.3638 -9.3894e+06) (-4.07002 -4.07002 -9.37706e+06) (4.26335 4.26335 -9.36394e+06) (13.1943 13.1943 -9.35082e+06) (21.769 21.769 -9.33872e+06) (39.5295 39.5295 -9.32915e+06)
3050          (-14.0515 -14.0515 -9.41863e+06) (-6.0135 -6.0135 -9.4174e+06) (-5.81437 -5.81437 -9.4132e+06) (-4.94222 -4.94222 -9.40689e+06) (-3.63743 -3.63743 -9.39861e+06) (-1.88492 -1.88492 -9.38865e+06) (0.23277 0.23277 -9.37743e+06) (2.66154 2.66154 -9.36549e+06) (5.12047 5.12047 -9.35356e+06) (7.841 7.841 -9.34255e+06) (17.2553 17.2553 -9.33385e+06)
3100          (23.8256 23.8256 -9.41527e+06) (16.331 16.331 -9.41406e+06) (14.5269 14.5269 -9.41035e+06) (13.9582 13.9582 -9.40459e+06) (11.4942 11.4942 -9.39704e+06) (7.91202 7.91202 -9.38798e+06) (3.76114 3.76114 -9.37776e+06) (-1.17938 -1.17938 -9.3669e+06) (-6.33848 -6.33848 -9.35604e+06) (-11.6462 -11.6462 -9.34602e+06) (-26.0226 -26.0226 -9.33811e+06)
3150          (36.6839 36.6839 -9.41219e+06) (21.0693 21.0693 -9.41127e+06) (27.9008 27.9008 -9.40767e+06) (23.644 23.644 -9.40245e+06) (18.6237 18.6237 -9.39562e+06) (13.2012 13.2012 -9.38736e+06) (5.57758 5.57758 -9.37807e+06) (-2.73947 -2.73947 -9.36819e+06) (-11.9845 -11.9845 -9.35832e+06) (-21.5103 -21.5103 -9.34922e+06) (-41.0651 -41.0651 -9.34202e+06)
3200          (-0.379912 -0.379912 -9.40942e+06) (4.94868 4.94868 -9.40831e+06) (-0.0508381 -0.050838 -9.40532e+06) (-0.259731 -0.259731 -9.40058e+06) (1.24298 1.24298 -9.39428e+06) (0.118863 0.118863 -9.38681e+06) (0.618446 0.618446 -9.37834e+06) (0.531054 0.531054 -9.36936e+06) (0.703707 0.703707 -9.36037e+06) (0.829075 0.829075 -9.3521e+06) (2.47893 2.47893 -9.34555e+06)
3250          (-10.8559 -10.8559 -9.4069e+06) (-20.2821 -20.2821 -9.40665e+06) (20.5308 20.5308 -9.40298e+06) (4.62353 4.62353 -9.39874e+06) (0.971949 0.971949 -9.3932e+06) (4.9541 4.9541 -9.38625e+06) (1.54081 1.54081 -9.3786e+06) (-0.217663 -0.217663 -9.37041e+06) (-5.27429 -5.27429 -9.36224e+06) (-16.0589 -16.0589 -9.35472e+06) (-3.23519 -3.23519 -9.34876e+06)
3300          (-23.1385 -23.1385 -9.40463e+06) (-6.01166 -6.01166 -9.40351e+06) (-13.2511 -13.2511 -9.4011e+06) (-15.7859 -15.7859 -9.39734e+06) (-6.85619 -6.85619 -9.39202e+06) (-5.26759 -5.26759 -9.38582e+06) (-1.98791 -1.98791 -9.37882e+06) (3.12319 3.12319 -9.37137e+06) (8.5165 8.5165 -9.36394e+06) (9.00744 9.00744 -9.35709e+06) (33.6282 33.6282 -9.35169e+06)
3350          (-2.70119 -2.70119 -9.40245e+06) (-36.9578 -36.9578 -9.40241e+06) (-4.85019 -4.85019 -9.39943e+06) (3.94834 3.94834 -9.39561e+06) (-6.08676 -6.08676 -9.39119e+06) (1.31651 1.31651 -9.38539e+06) (2.40878 2.40878 -9.37902e+06) (2.98312 2.98312 -9.37224e+06) (5.37779 5.37779 -9.36546e+06) (6.37308 6.37308 -9.35922e+06) (9.91125 9.91125 -9.3543e+06)
3400          (-34.7983 -34.7983 -9.40072e+06) (6.39221 6.39221 -9.39952e+06) (-23.7842 -23.7842 -9.39769e+06) (-27.1427 -27.1427 -9.39469e+06) (-10.96 -10.96 -9.39012e+06) (-11.2017 -11.2017 -9.38502e+06) (-4.44776 -4.44776 -9.37921e+06) (3.75532 3.75532 -9.37302e+06) (11.5493 11.5493 -9.36686e+06) (18.4819 18.4819 -9.36119e+06) (40.9286 40.9286 -9.35673e+06)
3450          (25.4966 25.4966 -9.39887e+06) (18.8182 18.8182 -9.39876e+06) (23.4259 23.4259 -9.39647e+06) (19.9229 19.9229 -9.39319e+06) (13.8556 13.8556 -9.38947e+06) (10.6617 10.6617 -9.38468e+06) (4.37604 4.37604 -9.37934e+06) (-2.39167 -2.39167 -9.37372e+06) (-9.90946 -9.90946 -9.36808e+06) (-18.9351 -18.9351 -9.36292e+06) (-32.6079 -32.6079 -9.35885e+06)
3500          (-18.1039 -18.1039 -9.39748e+06) (18.4472 18.4472 -9.39619e+06) (-3.3147 -3.3147 -9.39501e+06) (-6.72739 -6.72739 -9.39249e+06) (4.3744 4.3744 -9.38858e+06) (-0.0248338 -0.0248339 -9.38439e+06) (1.9503 1.9503 -9.37952e+06) (2.82726 2.82726 -9.37436e+06) (0.271945 0.271945 -9.36924e+06) (-1.06386 -1.06386 -9.36452e+06) (7.18591 7.18591 -9.36081e+06)
3550          (-5.7987 -5.7987 -9.39608e+06) (-52.3581 -52.3581 -9.39639e+06) (0.0624422 0.0624422 -9.39382e+06) (5.68902 5.68902 -9.39123e+06) (-3.28196 -3.28196 -9.38815e+06) (3.33551 3.33551 -9.38405e+06) (2.68837 2.68837 -9.37963e+06) (3.07373 3.07373 -9.3749e+06) (2.62071 2.62071 -9.37021e+06) (3.55316 3.55316 -9.36591e+06) (7.5568 7.5568 -9.36253e+06)
3600          (-15.459 -15.459 -9.39488e+06) (40.4858 40.4858 -9.39366e+06) (-8.84675 -8.84675 -9.393e+06) (-6.29405 -6.29405 -9.39059e+06) (2.129 2.129 -9.38743e+06) (-0.160174 -0.160174 -9.38385e+06) (2.15589 2.15589 -9.37972e+06) (2.6657 2.6657 -9.3754e+06) (3.52477 3.52477 -9.37109e+06) (5.0296 5.0296 -9.36716e+06) (7.52832 7.52832 -9.36409e+06)
3650          (-4.92896 -4.92896 -9.39381e+06) (-54.6821 -54.6821 -9.39406e+06) (0.239267 0.239267 -9.39178e+06) (-0.52013 -0.52013 -9.38975e+06) (-2.31319 -2.31319 -9.38698e+06) (1.06913 1.06913 -9.38358e+06) (1.63068 1.63068 -9.37983e+06) (3.00325 3.00325 -9.37585e+06) (4.10973 4.10973 -9.37191e+06) (5.59812 5.59812 -9.36832e+06) (7.5725 7.5725 -9.36552e+06)
3700          (-10.0478 -10.0478 -9.39274e+06) (38.1988 38.1988 -9.39174e+06) (-9.40855 -9.40855 -9.39119e+06) (-3.61742 -3.61742 -9.38906e+06) (-1.07167 -1.07167 -9.38647e+06) (-0.372953 -0.372953 -9.38339e+06) (1.28696 1.28696 -9.37992e+06) (2.52209 2.52209 -9.37627e+06) (3.93067 3.93067 -9.37266e+06) (5.3324 5.3324 -9.36937e+06) (7.09794 7.09794 -9.36682e+06)
3750          (-4.81756 -4.81756 -9.39187e+06) (-46.0463 -46.0463 -9.39203e+06) (0.631224 0.631224 -9.39013e+06) (-3.31442 -3.31442 -9.38844e+06) (-1.42386 -1.42386 -9.38604e+06) (-0.0412567 -0.0412567 -9.38319e+06) (1.2853 1.2853 -9.38001e+06) (2.67229 2.67229 -9.37666e+06) (3.98111 3.98111 -9.37335e+06) (5.31455 5.31455 -9.37034e+06) (6.86709 6.86709 -9.36801e+06)
3800          (-6.9776 -6.9776 -9.39093e+06) (32.1521 32.1521 -9.39011e+06) (-8.33839 -8.33839 -9.38963e+06) (-1.72811 -1.72811 -9.3878e+06) (-2.05851 -2.05851 -9.38565e+06) (-0.393889 -0.393889 -9.38302e+06) (0.804474 0.804474 -9.3801e+06) (2.14295 2.14295 -9.37703e+06) (3.42715 3.42715 -9.37399e+06) (4.65803 4.65803 -9.37123e+06) (6.10944 6.10944 -9.36909e+06)
3850          (-4.58811 -4.58811 -9.39022e+06) (-37.704 -37.704 -9.39033e+06) (0.715954 0.715954 -9.38873e+06) (-4.15508 -4.15508 -9.38732e+06) (-1.00244 -1.00244 -9.38526e+06) (-0.396082 -0.396082 -9.38287e+06) (1.04839 1.04839 -9.38018e+06) (2.29252 2.29252 -9.37736e+06) (3.53236 3.53236 -9.37458e+06) (4.69309 4.69309 -9.37205e+06) (6.01404 6.01404 -9.37009e+06)
3900          (-5.09279 -5.09279 -9.3894e+06) (26.3459 26.3459 -9.38873e+06) (-7.13055 -7.13055 -9.38831e+06) (-0.66278 -0.66278 -9.38675e+06) (-2.1053 -2.1053 -9.38495e+06) (-0.360616 -0.360616 -9.38272e+06) (0.567855 0.567855 -9.38026e+06) (1.77349 1.77349 -9.37767e+06) (2.87485 2.87485 -9.37512e+06) (3.93046 3.93046 -9.3728e+06) (5.14782 5.14782 -9.371e+06)
3950          (-4.28449 -4.28449 -9.38881e+06) (-30.9118 -30.9118 -9.38889e+06) (0.715402 0.715402 -9.38755e+06) (-4.15968 -4.15968 -9.38637e+06) (-0.789402 -0.789402 -9.38462e+06) (-0.452594 -0.452594 -9.3826e+06) (0.862321 0.862321 -9.38033e+06) (1.94368 1.94368 -9.37796e+06) (3.03295 3.03295 -9.37561e+06) (4.02807 4.02807 -9.37349e+06) (5.15035 5.15035 -9.37184e+06)
4000          (-6.16543 -6.16543 -9.38819e+06) (25.1702 25.1702 -9.38771e+06) (-7.50865 -7.50865 -9.3873e+06) (-0.391695 -0.391695 -9.38594e+06) (-2.56015 -2.56015 -9.3844e+06) (-0.653514 -0.653514 -9.38249e+06) (0.249882 0.249882 -9.38039e+06) (1.52955 1.52955 -9.37818e+06) (2.70778 2.70778 -9.376e+06) (3.87065 3.87065 -9.37402e+06) (5.0911 5.0911 -9.3725e+06)