# Probe 0 (0.0015 0.0015 0)
# Probe 1 (0.0015 0.0015 0.002)
# Probe 2 (0.0015 0.0015 0.004)
# Probe 3 (0.0015 0.0015 0.006)
# Probe 4 (0.0015 0.0015 0.008)
# Probe 5 (0.0015 0.0015 0.01)
# Probe 6 (0.0015 0.0015 0.012)
# Probe 7 (0.0015 0.0015 0.014)
# Probe 8 (0.0015 0.0015 0.016)
# Probe 9 (0.0015 0.0015 0.018)
# Probe 10 (0.0015 0.0015 0.02)
# Time        0             1             2             3             4             5             6             7             8             9             10           
50            0.000640746   0.000605846   0.000380656   0.000723142   0.000918099   0.00064559    0.00043546    0.000490779   0.000541506   0.000342685   0.000508152  
100           0.000640746   0.000605846   0.000380656   0.000723142   0.000918099   0.00064559    0.00043546    0.000490779   0.000541506   0.000342685   0.000508152  
150           0.000640746   0.000605846   0.000380656   0.000723142   0.000918099   0.00064559    0.00043546    0.000490779   0.000541506   0.000342685   0.000508152  
200           0.000640746   0.000605846   0.000380656   0.000723142   0.000918099   0.00064559    0.00043546    0.000490779   0.000541506   0.000342685   0.000508152  
250           0.000640746   0.000605846   0.000380656   0.000723142   0.000918099   0.00064559    0.00043546    0.000490779   0.000541506   0.000342685   0.000508152  
300           0.000640746   0.000605846   0.000380656   0.000723142   0.000918099   0.00064559    0.00043546    0.000490779   0.000541506   0.000342685   0.000508152  
350           0.000640746   0.000605846   0.000380656   0.000723142   0.000918099   0.00064559    0.00043546    0.000490779   0.000541506   0.000342685   0.000508152  
400           0.000640746   0.000605846   0.000380656   0.000723142   0.000918099   0.00064559    0.00043546    0.000490779   0.000541506   0.000342685   0.000508152  
450           0.000640746   0.000605846   0.000380656   0.000723142   0.000918099   0.00064559    0.00043546    0.000490779   0.000541506   0.000342685   0.000508152  
500           0.000640746   0.000605846   0.000380656   0.000723142   0.000918099   0.00064559    0.00043546    0.000490779   0.000541506   0.000342685   0.000508152  
550           0.000640746   0.000605846   0.000380656   0.000723142   0.000918099   0.00064559    0.00043546    0.000490779   0.000541506   0.000342685   0.000508152  
600           0.000640746   0.000605846   0.000380656   0.000723142   0.000918099   0.00064559    0.00043546    0.000490779   0.000541506   0.000342685   0.000508152  
650           0.000640746   0.000605846   0.000380656   0.000723142   0.000918099   0.00064559    0.00043546    0.000490779   0.000541506   0.000342685   0.000508152  
700           0.000640746   0.000605846   0.000380656   0.000723142   0.000918099   0.00064559    0.00043546    0.000490779   0.000541506   0.000342685   0.000508152  
750           0.000640746   0.000605846   0.000380656   0.000723142   0.000918099   0.00064559    0.00043546    0.000490779   0.000541506   0.000342685   0.000508152  
800           0.000640746   0.000605846   0.000380656   0.000723142   0.000918099   0.00064559    0.00043546    0.000490779   0.000541506   0.000342685   0.000508152  
850           0.000640746   0.000605846   0.000380656   0.000723142   0.000918099   0.00064559    0.00043546    0.000490779   0.000541506   0.000342685   0.000508152  
900           0.000640746   0.000605846   0.000380656   0.000723142   0.000918099   0.00064559    0.00043546    0.000490779   0.000541506   0.000342685   0.000508152  
950           0.000640746   0.000605846   0.000380656   0.000723142   0.000918099   0.00064559    0.00043546    0.000490779   0.000541506   0.000342685   0.000508152  
1000          0.000640746   0.000605846   0.000380656   0.000723142   0.000918099   0.00064559    0.00043546    0.000490779   0.000541506   0.000342685   0.000508152  
1050          0.000640746   0.000605846   0.000380656   0.000723142   0.000918099   0.00064559    0.00043546    0.000490779   0.000541506   0.000342685   0.000508152  
1100          0.000640746   0.000605846   0.000380656   0.000723142   0.000918099   0.00064559    0.00043546    0.000490779   0.000541506   0.000342685   0.000508152  
1150          0.000640746   0.000605846   0.000380656   0.000723142   0.000918099   0.00064559    0.00043546    0.000490779   0.000541506   0.000342685   0.000508152  
1200          0.000640746   0.000605846   0.000380656   0.000723142   0.000918099   0.00064559    0.00043546    0.000490779   0.000541506   0.000342685   0.000508152  
1250          0.000640746   0.000605846   0.000380656   0.000723142   0.000918099   0.00064559    0.00043546    0.000490779   0.000541506   0.000342685   0.000508152  
1300          0.000640746   0.000605846   0.000380656   0.000723142   0.000918099   0.00064559    0.00043546    0.000490779   0.000541506   0.000342685   0.000508152  
1350          0.000640746   0.000605846   0.000380656   0.000723142   0.000918099   0.00064559    0.00043546    0.000490779   0.000541506   0.000342685   0.000508152  
1400          0.000640746   0.000605846   0.000380656   0.000723142   0.000918099   0.00064559    0.00043546    0.000490779   0.000541506   0.000342685   0.000508152  
1450          0.000640746   0.000605846   0.000380656   0.000723142   0.000918099   0.00064559    0.00043546    0.000490779   0.000541506   0.000342685   0.000508152  
1500          0.000640746   0.000605846   0.000380656   0.000723142   0.000918099   0.00064559    0.00043546    0.000490779   0.000541506   0.000342685   0.000508152  
1550          0.000640746   0.000605846   0.000380656   0.000723142   0.000918099   0.00064559    0.00043546    0.000490779   0.000541506   0.000342685   0.000508152  
1600          0.000640746   0.000605846   0.000380656   0.000723142   0.000918099   0.00064559    0.00043546    0.000490779   0.000541506   0.000342685   0.000508152  
1650          0.000640746   0.000605846   0.000380656   0.000723142   0.000918099   0.00064559    0.00043546    0.000490779   0.000541506   0.000342685   0.000508152  
1700          0.000640746   0.000605846   0.000380656   0.000723142   0.000918099   0.00064559    0.00043546    0.000490779   0.000541506   0.000342685   0.000508152  
1750          0.000640746   0.000605846   0.000380656   0.000723142   0.000918099   0.00064559    0.00043546    0.000490779   0.000541506   0.000342685   0.000508152  
1800          0.000640746   0.000605846   0.000380656   0.000723142   0.000918099   0.00064559    0.00043546    0.000490779   0.000541506   0.000342685   0.000508152  
1850          0.000640746   0.000605846   0.000380656   0.000723142   0.000918099   0.00064559    0.00043546    0.000490779   0.000541506   0.000342685   0.000508152  
1900          0.000640746   0.000605846   0.000380656   0.000723142   0.000918099   0.00064559    0.00043546    0.000490779   0.000541506   0.000342685   0.000508152  
1950          0.000640746   0.000605846   0.000380656   0.000723142   0.000918099   0.00064559    0.00043546    0.000490779   0.000541506   0.000342685   0.000508152  
2000          0.000640746   0.000605846   0.000380656   0.000723142   0.000918099   0.00064559    0.00043546    0.000490779   0.000541506   0.000342685   0.000508152  
2050          0.000640746   0.000605846   0.000380656   0.000723142   0.000918099   0.00064559    0.00043546    0.000490779   0.000541506   0.000342685   0.000508152  
2100          0.000640746   0.000605846   0.000380656   0.000723142   0.000918099   0.00064559    0.00043546    0.000490779   0.000541506   0.000342685   0.000508152  
2150          0.000640746   0.000605846   0.000380656   0.000723142   0.000918099   0.00064559    0.00043546    0.000490779   0.000541506   0.000342685   0.000508152  
2200          0.000640746   0.000605846   0.000380656   0.000723142   0.000918099   0.00064559    0.00043546    0.000490779   0.000541506   0.000342685   0.000508152  
2250          0.000640746   0.000605846   0.000380656   0.000723142   0.000918099   0.00064559    0.00043546    0.000490779   0.000541506   0.000342685   0.000508152  
2300          0.000640746   0.000605846   0.000380656   0.000723142   0.000918099   0.00064559    0.00043546    0.000490779   0.000541506   0.000342685   0.000508152  
2350          0.000640746   0.000605846   0.000380656   0.000723142   0.000918099   0.00064559    0.00043546    0.000490779   0.000541506   0.000342685   0.000508152  
2400          0.000640746   0.000605846   0.000380656   0.000723142   0.000918099   0.00064559    0.00043546    0.000490779   0.000541506   0.000342685   0.000508152  
2450          0.000640746   0.000605846   0.000380656   0.000723142   0.000918099   0.00064559    0.00043546    0.000490779   0.000541506   0.000342685   0.000508152  
2500          0.000640746   0.000605846   0.000380656   0.000723142   0.000918099   0.00064559    0.00043546    0.000490779   0.000541506   0.000342685   0.000508152  
2550          0.000640746   0.000605846   0.000380656   0.000723142   0.000918099   0.00064559    0.00043546    0.000490779   0.000541506   0.000342685   0.000508152  
2600          0.000640746   0.000605846   0.000380656   0.000723142   0.000918099   0.00064559    0.00043546    0.000490779   0.000541506   0.000342685   0.000508152  
2650          0.000640746   0.000605846   0.000380656   0.000723142   0.000918099   0.00064559    0.00043546    0.000490779   0.000541506   0.000342685   0.000508152  
2700          0.000640746   0.000605846   0.000380656   0.000723142   0.000918099   0.00064559    0.00043546    0.000490779   0.000541506   0.000342685   0.000508152  
2750          0.000640746   0.000605846   0.000380656   0.000723142   0.000918099   0.00064559    0.00043546    0.000490779   0.000541506   0.000342685   0.000508152  
2800          0.000640746   0.000605846   0.000380656   0.000723142   0.000918099   0.00064559    0.00043546    0.000490779   0.000541506   0.000342685   0.000508152  
2850          0.000640746   0.000605846   0.000380656   0.000723142   0.000918099   0.00064559    0.00043546    0.000490779   0.000541506   0.000342685   0.000508152  
2900          0.000640746   0.000605846   0.000380656   0.000723142   0.000918099   0.00064559    0.00043546    0.000490779   0.000541506   0.000342685   0.000508152  
2950          0.000640746   0.000605846   0.000380656   0.000723142   0.000918099   0.00064559    0.00043546    0.000490779   0.000541506   0.000342685   0.000508152  
3000          0.000640746   0.000605846   0.000380656   0.000723142   0.000918099   0.00064559    0.00043546    0.000490779   0.000541506   0.000342685   0.000508152  
3050          0.000640746   0.000605846   0.000380656   0.000723142   0.000918099   0.00064559    0.00043546    0.000490779   0.000541506   0.000342685   0.000508152  
3100          0.000640746   0.000605846   0.000380656   0.000723142   0.000918099   0.00064559    0.00043546    0.000490779   0.000541506   0.000342685   0.000508152  
3150          0.000640746   0.000605846   0.000380656   0.000723142   0.000918099   0.00064559    0.00043546    0.000490779   0.000541506   0.000342685   0.000508152  
3200          0.000640746   0.000605846   0.000380656   0.000723142   0.000918099   0.00064559    0.00043546    0.000490779   0.000541506   0.000342685   0.000508152  
3250          0.000640746   0.000605846   0.000380656   0.000723142   0.000918099   0.00064559    0.00043546    0.000490779   0.000541506   0.000342685   0.000508152  
3300          0.000640746   0.000605846   0.000380656   0.000723142   0.000918099   0.00064559    0.00043546    0.000490779   0.000541506   0.000342685   0.000508152  
3350          0.000640746   0.000605846   0.000380656   0.000723142   0.000918099   0.00064559    0.00043546    0.000490779   0.000541506   0.000342685   0.000508152  
3400          0.000640746   0.000605846   0.000380656   0.000723142   0.000918099   0.00064559    0.00043546    0.000490779   0.000541506   0.000342685   0.000508152  
3450          0.000640746   0.000605846   0.000380656   0.000723142   0.000918099   0.00064559    0.00043546    0.000490779   0.000541506   0.000342685   0.000508152  
3500          0.000640746   0.000605846   0.000380656   0.000723142   0.000918099   0.00064559    0.00043546    0.000490779   0.000541506   0.000342685   0.000508152  
3550          0.000640746   0.000605846   0.000380656   0.000723142   0.000918099   0.00064559    0.00043546    0.000490779   0.000541506   0.000342685   0.000508152  
3600          0.000640746   0.000605846   0.000380656   0.000723142   0.000918099   0.00064559    0.00043546    0.000490779   0.000541506   0.000342685   0.000508152  
3650          0.000640746   0.000605846   0.000380656   0.000723142   0.000918099   0.00064559    0.00043546    0.000490779   0.000541506   0.000342685   0.000508152  
3700          0.000640746   0.000605846   0.000380656   0.000723142   0.000918099   0.00064559    0.00043546    0.000490779   0.000541506   0.000342685   0.000508152  
3750          0.000640746   0.000605846   0.000380656   0.000723142   0.000918099   0.00064559    0.00043546    0.000490779   0.000541506   0.000342685   0.000508152  
3800          0.000640746   0.000605846   0.000380656   0.000723142   0.000918099   0.00064559    0.00043546    0.000490779   0.000541506   0.000342685   0.000508152  
3850          0.000640746   0.000605846   0.000380656   0.000723142   0.000918099   0.00064559    0.00043546    0.000490779   0.000541506   0.000342685   0.000508152  
3900          0.000640746   0.000605846   0.000380656   0.000723142   0.000918099   0.00064559    0.00043546    0.000490779   0.000541506   0.000342685   0.000508152  
3950          0.000640746   0.000605846   0.000380656   0.000723142   0.000918099   0.00064559    0.00043546    0.000490779   0.000541506   0.000342685   0.000508152  
4000          0.000640746   0.000605846   0.000380656   0.000723142   0.000918099   0.00064559    0.00043546    0.000490779   0.000541506   0.000342685   0.000508152  
4050          0.000640746   0.000605846   0.000380656   0.000723142   0.000918099   0.00064559    0.00043546    0.000490779   0.000541506   0.000342685   0.000508152  
4100          0.000640746   0.000605846   0.000380656   0.000723142   0.000918099   0.00064559    0.00043546    0.000490779   0.000541506   0.000342685   0.000508152  
4150          0.000640746   0.000605846   0.000380656   0.000723142   0.000918099   0.00064559    0.00043546    0.000490779   0.000541506   0.000342685   0.000508152  
4200          0.000640746   0.000605846   0.000380656   0.000723142   0.000918099   0.00064559    0.00043546    0.000490779   0.000541506   0.000342685   0.000508152  
4250          0.000640746   0.000605846   0.000380656   0.000723142   0.000918099   0.00064559    0.00043546    0.000490779   0.000541506   0.000342685   0.000508152  
4300          0.000640746   0.000605846   0.000380656   0.000723142   0.000918099   0.00064559    0.00043546    0.000490779   0.000541506   0.000342685   0.000508152  
4350          0.000640746   0.000605846   0.000380656   0.000723142   0.000918099   0.00064559    0.00043546    0.000490779   0.000541506   0.000342685   0.000508152  
4400          0.000640746   0.000605846   0.000380656   0.000723142   0.000918099   0.00064559    0.00043546    0.000490779   0.000541506   0.000342685   0.000508152  
4450          0.000640746   0.000605846   0.000380656   0.000723142   0.000918099   0.00064559    0.00043546    0.000490779   0.000541506   0.000342685   0.000508152  
4500          0.000640746   0.000605846   0.000380656   0.000723142   0.000918099   0.00064559    0.00043546    0.000490779   0.000541506   0.000342685   0.000508152  
4550          0.000640746   0.000605846   0.000380656   0.000723142   0.000918099   0.00064559    0.00043546    0.000490779   0.000541506   0.000342685   0.000508152  
4600          0.000640746   0.000605846   0.000380656   0.000723142   0.000918099   0.00064559    0.00043546    0.000490779   0.000541506   0.000342685   0.000508152  
4650          0.000640746   0.000605846   0.000380656   0.000723142   0.000918099   0.00064559    0.00043546    0.000490779   0.000541506   0.000342685   0.000508152  
4700          0.000640746   0.000605846   0.000380656   0.000723142   0.000918099   0.00064559    0.00043546    0.000490779   0.000541506   0.000342685   0.000508152  
4750          0.000640746   0.000605846   0.000380656   0.000723142   0.000918099   0.00064559    0.00043546    0.000490779   0.000541506   0.000342685   0.000508152  
4800          0.000640746   0.000605846   0.000380656   0.000723142   0.000918099   0.00064559    0.00043546    0.000490779   0.000541506   0.000342685   0.000508152  
4850          0.000640746   0.000605846   0.000380656   0.000723142   0.000918099   0.00064559    0.00043546    0.000490779   0.000541506   0.000342685   0.000508152  
4900          0.000640746   0.000605846   0.000380656   0.000723142   0.000918099   0.00064559    0.00043546    0.000490779   0.000541506   0.000342685   0.000508152  
4950          0.000640746   0.000605846   0.000380656   0.000723142   0.000918099   0.00064559    0.00043546    0.000490779   0.000541506   0.000342685   0.000508152  
5000          0.000640746   0.000605846   0.000380656   0.000723142   0.000918099   0.00064559    0.00043546    0.000490779   0.000541506   0.000342685   0.000508152  
