# Probe 0 (0.0015 0.0015 0)
# Probe 1 (0.0015 0.0015 0.002)
# Probe 2 (0.0015 0.0015 0.004)
# Probe 3 (0.0015 0.0015 0.006)
# Probe 4 (0.0015 0.0015 0.008)
# Probe 5 (0.0015 0.0015 0.01)
# Probe 6 (0.0015 0.0015 0.012)
# Probe 7 (0.0015 0.0015 0.014)
# Probe 8 (0.0015 0.0015 0.016)
# Probe 9 (0.0015 0.0015 0.018)
# Probe 10 (0.0015 0.0015 0.02)
# Time        0             1             2             3             4             5             6             7             8             9             10           
50            (-515151 -39849.8 -5.35392e+07) (-2.99677e+06 269304 -3.62303e+07) (-18715.2 -328128 -1.39916e+07) (27993.1 366388 -4.90255e+06) (-86150.7 -18486.5 -1.40121e+06) (-2357.76 -10408.1 -559495) (-12943.9 1114.37 -127455) (-3609.52 5557.38 57368.1) (-1217.72 -15342.4 331155) (-27295.2 -70160.3 1.15908e+06) (88272.3 5067.66 3.62427e+06)
100           (584840 5145.72 -4.39837e+07) (-2.25821e+06 474909 -3.69163e+07) (-105982 -456968 -2.13436e+07) (70725.8 578145 -8.73075e+06) (-158786 -33789.5 -2.65413e+06) (-3287.12 -19626 -1.09438e+06) (-25012.9 1143.54 -283973) (-5097.67 7887.36 29185) (-1837.82 -17149.2 365289) (-29761.7 -68832.2 1.24047e+06) (92459.6 14804.9 3.50984e+06)
150           (646671 27009.8 -3.65066e+07) (-1.50839e+06 475561 -3.26769e+07) (-235752 -673745 -2.54389e+07) (158430 699960 -1.3333e+07) (-259627 -54322.7 -4.51654e+06) (-3836.46 -33448.1 -1.93039e+06) (-44099.1 902.781 -540704) (-7268.62 11414.6 -28624.2) (-2853.82 -19051.1 393960) (-32076.8 -67351.5 1.326e+06) (96038.7 24788.3 3.38117e+06)
200           (608939 29557.1 -3.16821e+07) (-1.21343e+06 431613 -2.89048e+07) (-215481 -827864 -2.57768e+07) (302315 632597 -1.71949e+07) (-370574 -68745.8 -6.91765e+06) (-2571 -51337 -3.11785e+06) (-71934.6 58.9817 -927944) (-10287.2 16479.3 -127843) (-4390.81 -20920.4 410619) (-33889.5 -65566.4 1.40461e+06) (97730.5 32475.6 3.24356e+06)
250           (566630 28819.9 -2.83715e+07) (-1.05341e+06 393918 -2.60949e+07) (-147065 -845656 -2.45993e+07) (412534 469758 -1.92695e+07) (-459389 -57671.5 -9.54564e+06) (3278.49 -69826.1 -4.67519e+06) (-110321 -2023.45 -1.48299e+06) (-14355.1 23524.9 -284030) (-6623.58 -22638.1 407723) (-34957 -63429.7 1.46747e+06) (97233.8 36738.2 3.1008e+06)
300           (529537 27565.8 -2.59255e+07) (-945848 364335 -2.39547e+07) (-112994 -819177 -2.31809e+07) (446985 353334 -1.97808e+07) (-506785 -16726.6 -1.18395e+07) (17834.5 -79459.7 -6.53432e+06) (-160347 -6560.35 -2.24425e+06) (-19679.7 33078.2 -517195) (-9806.26 -24095.9 375872) (-35148 -60985.8 1.50735e+06) (94913.8 38004.2 2.95477e+06)
350           (497746 26290.5 -2.40203e+07) (-866732 340298 -2.22602e+07) (-97629.5 -784043 -2.18663e+07) (448988 289279 -1.94879e+07) (-522069 30984.5 -1.33679e+07) (45181.2 -66793.6 -8.49719e+06) (-220973 -15684.8 -3.23765e+06) (-26360.5 45620.3 -850060) (-14218 -25174.2 304004) (-34393.3 -58404.8 1.51782e+06) (91270.3 37257.4 2.80545e+06)
400           (470595 25062.8 -2.24787e+07) (-804882 320234 -2.08745e+07) (-88493.3 -749348 -2.07073e+07) (441649 247706 -1.89085e+07) (-520256 63955.6 -1.41237e+07) (86694.6 -30161.7 -1.02728e+07) (-287231 -32287.9 -4.4544e+06) (-34215 61358.8 -1.30529e+06) (-20141.1 -25745.7 179149) (-32657.9 -55892.4 1.49232e+06) (86716.4 35350.9 2.65116e+06)
450           (447006 23978.5 -2.11957e+07) (-754764 303227 -1.97131e+07) (-81803.6 -717009 -1.96915e+07) (430983 218449 -1.8261e+07) (-509445 80995.4 -1.4351e+07) (138154 9172.39 -1.16199e+07) (-349585 -57716.9 -5.82698e+06) (-42517 80072.2 -1.89934e+06) (-27836.7 -25663 -13374.6) (-29839.5 -53748.1 1.42309e+06) (81423.7 32725.3 2.48831e+06)
500           (426393 22994.5 -2.01045e+07) (-712890 288541 -1.87201e+07) (-76533 -687492 -1.87965e+07) (419066 196801 -1.76193e+07) (-494394 89235.4 -1.42865e+07) (190059 30003.4 -1.24664e+07) (-395564 -88176.8 -7.22503e+06) (-49730.6 100839 -2.63478e+06) (-37379.7 -24736.8 -288528) (-25811 -52199.7 1.30123e+06) (75423.1 29532.7 2.31154e+06)
550           (408151 22100.5 -1.91596e+07) (-677146 275671 -1.78565e+07) (-72203.4 -660601 -1.80007e+07) (406843 180221 -1.70068e+07) (-478391 93247.7 -1.40764e+07) (232858 33488.2 -1.28922e+07) (-415798 -115390 -8.48987e+06) (-53467.6 122154 -3.4904e+06) (-48563.4 -22691.2 -659773) (-20367.8 -51435.1 1.11622e+06) (68575.9 25699.4 2.11356e+06)
600           (391818 21284.1 -1.83285e+07) (-646082 264240 -1.70944e+07) (-68544.8 -636017 -1.72861e+07) (394764 167076 -1.64296e+07) (-462841 95084.7 -1.37966e+07) (262728 31277 -1.30329e+07) (-410685 -133456 -9.50075e+06) (-51166 142211 -4.41446e+06) (-60718.9 -19098 -1.13491e+06) (-13269 -51526 856495) (60626 21040.9 1.88518e+06)
650           (377040 20533.9 -1.75876e+07) (-618665 253967 -1.64131e+07) (-65384.5 -613423 -1.66382e+07) (383037 156339 -1.58875e+07) (-448095 95651.9 -1.34845e+07) (281233 29623.4 -1.30036e+07) (-390308 -142912 -1.02171e+07) (-41728 159180 -5.32955e+06) (-72651.4 -13327.3 -1.71135e+06) (-4291.56 -52377 510730) (51234.4 15333.3 1.61558e+06)
700           (363543 19840.3 -1.69193e+07) (-594144 244636 -1.57969e+07) (-62605.1 -592535 -1.60457e+07) (371752 147354 -1.53783e+07) (-434166 95406.8 -1.31594e+07) (291676 29253.2 -1.28769e+07) (-366203 -147464 -1.06674e+07) (-27048.4 171120 -6.15359e+06) (-82835.5 -4648.87 -2.37255e+06) (6690.98 -53685.5 70009.9) (40021 8367.26 1.29298e+06)
750           (351110 19194.8 -1.63102e+07) (-571957 236082 -1.52342e+07) (-60123.9 -573107 -1.54993e+07) (360930 139683 -1.48987e+07) (-420986 94612.4 -1.2831e+07) (296790 29443.9 -1.26927e+07) (-344778 -149840 -1.09106e+07) (-11247 176425 -6.82803e+06) (-89932.5 7445.69 -3.08693e+06) (19604.7 -54916.4 -468823) (26623 3.89292 905908)
800           (339569 18590.2 -1.57499e+07) (-551677 228173 -1.47156e+07) (-57881.1 -554926 -1.49916e+07) (350551 133026 -1.44454e+07) (-408473 93435.1 -1.25041e+07) (298377 29689.9 -1.24728e+07) (-327416 -151102 -1.10064e+07) (2247.69 175145 -7.33418e+06) (-93487 22848.3 -3.81141e+06) (34082.1 -55320.4 -1.09907e+06) (10778.8 -9762.04 445426)
850           (328780 18020.2 -1.52302e+07) (-532971 220804 -1.42338e+07) (-55832 -537814 -1.45167e+07) (340588 127159 -1.40152e+07) (-396548 91997.8 -1.21818e+07) (297647 29824.2 -1.22311e+07) (-313255 -151552 -1.10042e+07) (12442.3 169277 -7.68904e+06) (-94266.9 40688.9 -4.501e+06) (49472.3 -54056.3 -1.8016e+06) (-7577.04 -20753.3 -92185.3)
900           (318635 17480.7 -1.47448e+07) (-515577 213894 -1.37832e+07) (-53941.1 -521639 -1.40699e+07) (331029 121900 -1.36061e+07) (-385162 90405.9 -1.18665e+07) (295490 29844.1 -1.19786e+07) (-301139 -151355 -1.09419e+07) (20012 161377 -7.92825e+06) (-93724.4 59602.4 -5.12139e+06) (65015.5 -50440.3 -2.5464e+06) (-28241.9 -32611.5 -703044)
950           (309064 16969.3 -1.42889e+07) (-499296 207388 -1.33595e+07) (-52180.8 -506322 -1.36481e+07) (321889 117104 -1.3217e+07) (-374305 88753.9 -1.15614e+07) (292576 29795.5 -1.17248e+07) (-290310 -150712 -1.08473e+07) (25918.3 153265 -8.08937e+06) (-93016 78216.3 -5.65718e+06) (80090 -44221.4 -3.29871e+06) (-50734 -44861.1 -1.37472e+06)
1000          (300027 16485.5 -1.38595e+07) (-483987 201252 -1.29603e+07) (-50531.2 -491833 -1.32499e+07) (313202 112655 -1.28481e+07) (-363999 87122.2 -1.12696e+07) (289386 29725.5 -1.14775e+07) (-280413 -149832 -1.07397e+07) (30813.1 145802 -8.20254e+06) (-92564.6 95538.1 -6.11098e+06) (94347.3 -35700.2 -4.02713e+06) (-74354.7 -57014.9 -2.08737e+06)
1050          (291513 16029.8 -1.34549e+07) (-469565 195471 -1.25842e+07) (-48979.6 -478177 -1.28746e+07) (305011 108472 -1.25004e+07) (-354283 85573.4 -1.09941e+07) (286244 29668.7 -1.12428e+07) (-271317 -148889 -1.06318e+07) (35048.9 139230 -8.2886e+06) (-92324.4 111089 -6.49579e+06) (107666 -25600.9 -4.70949e+06) (-98307.6 -68672.3 -2.81678e+06)
1100          (283525 15603.1 -1.30745e+07) (-455990 190043 -1.22307e+07) (-47519.3 -465378 -1.25225e+07) (297357 104506 -1.21749e+07) (-345198 84150.3 -1.07372e+07) (283350 29646.4 -1.1025e+07) (-262981 -148004 -1.05312e+07) (38813.2 133529 -8.36067e+06) (-92166.1 124810 -6.82701e+06) (120025 -14787.7 -5.33431e+06) (-121828 -79570.8 -3.53836e+06)
1150          (276046 15205.7 -1.27186e+07) (-443288 184980 -1.19001e+07) (-46117.9 -453445 -1.21941e+07) (290327 100891 -1.18727e+07) (-336808 82774.9 -1.05003e+07) (280755 29661.8 -1.08264e+07) (-255491 -147237 -1.04421e+07) (42222.6 128734 -8.42641e+06) (-92111.9 136821 -7.11766e+06) (131461 -4124.49 -5.89873e+06) (-144340 -89663.8 -4.23077e+06)
1200          (269152 14840.1 -1.23874e+07) (-431401 180274 -1.15929e+07) (-44838.8 -442440 -1.189e+07) (283825 97301.7 -1.15943e+07) (-329073 81668.4 -1.02845e+07) (278618 29730.1 -1.06481e+07) (-248627 -146637 -1.03667e+07) (45316.4 124477 -8.48973e+06) (-91999.3 147447 -7.37701e+06) (141865 6105.94 -6.40438e+06) (-165263 -98745.9 -4.87822e+06)
1250          (262818 14506 -1.20811e+07) (-420367 175938 -1.13091e+07) (-43651.1 -432355 -1.16103e+07) (277917 93902.6 -1.13401e+07) (-322033 80723.2 -1.009e+07) (276888 29841.3 -1.04905e+07) (-242475 -146202 -1.03051e+07) (48141.8 120819 -8.55243e+06) (-91933.3 156841 -7.61078e+06) (151281 15489.3 -6.85534e+06) (-184382 -106917 -5.47082e+06)
1300          (257042 14203 -1.18001e+07) (-410200 171971 -1.1049e+07) (-42555.2 -423187 -1.13552e+07) (272596 90709.2 -1.111e+07) (-315681 79929.1 -9.91623e+06) (275533 29987.5 -1.03525e+07) (-237007 -145919 -1.02565e+07) (50718.8 117690 -8.61475e+06) (-91925.1 165160 -7.82239e+06) (159731 23897.5 -7.25606e+06) (-201579 -114218 -6.00417e+06)
1350          (251825 13944.6 -1.15444e+07) (-400905 168391 -1.08126e+07) (-41538.1 -414897 -1.11242e+07) (267826 87758.8 -1.09032e+07) (-310001 79267.8 -9.76224e+06) (274490 30175.1 -1.02326e+07) (-232210 -145720 -1.02191e+07) (53010.1 115070 -8.67614e+06) (-91989.6 172525 -8.0137e+06) (167274 31264.9 -7.611e+06) (-216916 -120719 -6.47816e+06)
1400          (247132 13700 -1.13133e+07) (-392484 165148 -1.05992e+07) (-40628.6 -407493 -1.09168e+07) (263605 85018 -1.07187e+07) (-304946 78725.4 -9.62665e+06) (273735 30358.5 -1.01295e+07) (-227969 -145674 -1.01914e+07) (55128.6 112804 -8.73559e+06) (-92082.2 179029 -8.18623e+06) (173927 37740.6 -7.92395e+06) (-230356 -126436 -6.89516e+06)
1450          (242991 13450.5 -1.11059e+07) (-384856 162217 -1.0408e+07) (-39840.8 -400958 -1.07316e+07) (259876 82295.3 -1.05551e+07) (-300458 78366.8 -9.50823e+06) (273267 30544 -1.00412e+07) (-224120 -145787 -1.01715e+07) (57089.2 110716 -8.7922e+06) (-92126.2 184785 -8.34088e+06) (179744 43496.7 -8.19876e+06) (-242015 -131381 -7.25949e+06)
1500          (239278 13262.3 -1.0921e+07) (-378071 159642 -1.02377e+07) (-39103.2 -395133 -1.05675e+07) (256618 80045.5 -1.04112e+07) (-296542 78003.6 -9.40511e+06) (272904 30736.2 -9.96623e+06) (-220930 -145864 -1.01577e+07) (58775.2 109122 -8.84541e+06) (-92285.6 189800 -8.47867e+06) (184870 48304.2 -8.43915e+06) (-252227 -135767 -7.57586e+06)
1550          (236006 13097.4 -1.0757e+07) (-372037 157368 -1.00869e+07) (-38446.9 -390012 -1.04228e+07) (253775 78022.5 -1.0285e+07) (-293122 77711.8 -9.31581e+06) (272673 30923.3 -9.90261e+06) (-218179 -145978 -1.01486e+07) (60266 107783 -8.89462e+06) (-92456.2 194180 -8.60071e+06) (189336 52425.6 -8.64862e+06) (-261062 -139579 -7.84953e+06)
1600          (233138 12953.5 -1.06126e+07) (-366706 155368 -9.95414e+06) (-37866.5 -385531 -1.02958e+07) (251306 76216.9 -1.01749e+07) (-290146 77477.5 -9.23871e+06) (272539 31100.5 -9.84871e+06) (-215811 -146112 -1.0143e+07) (61577.3 106658 -8.93953e+06) (-92628.4 197992 -8.70819e+06) (193215 55952 -8.83052e+06) (-268683 -142881 -8.08554e+06)
1650          (230634 12828.4 -1.0486e+07) (-362021 153620 -9.83786e+06) (-37356.2 -381626 -1.0185e+07) (249167 74616.9 -1.00793e+07) (-287567 77289.2 -9.17232e+06) (272473 31264.9 -9.80306e+06) (-213777 -146255 -1.01398e+07) (62725 105712 -8.98003e+06) (-92795.5 201298 -8.80237e+06) (196573 58965.1 -8.98801e+06) (-275240 -145733 -8.2886e+06)
1700          (228457 12720.1 -1.03755e+07) (-357923 152096 -9.73644e+06) (-36909.6 -378237 -1.00885e+07) (247320 73207.5 -9.99643e+06) (-285337 77137.5 -9.11527e+06) (272453 31415.1 -9.76442e+06) (-212033 -146399 -1.01383e+07) (63725.1 104916 -9.01621e+06) (-92953.3 204158 -8.88452e+06) (199473 61537.3 -9.12403e+06) (-280872 -148190 -8.46298e+06)
1750          (226570 12626.5 -1.02794e+07) (-354353 150774 -9.64831e+06) (-36520.5 -375303 -1.00049e+07) (245729 71972.7 -9.92485e+06) (-283415 77014.9 -9.06633e+06) (272463 31550.6 -9.7317e+06) (-210540 -146538 -1.0138e+07) (64593.3 104246 -9.04826e+06) (-93099.2 206625 -8.95591e+06) (201970 63731.6 -9.24123e+06) (-285702 -150302 -8.61252e+06)
1800          (224932 12523.3 -1.01962e+07) (-351265 149614 -9.57202e+06) (-36168.8 -372789 -9.93262e+06) (244416 70902.8 -9.86321e+06) (-281774 76882.6 -9.02433e+06) (272487 31643.1 -9.70398e+06) (-209247 -146704 -1.01383e+07) (65363.7 103615 -9.07652e+06) (-93234.3 208717 -9.0177e+06) (204122 65633.4 -9.34208e+06) (-289842 -152127 -8.74059e+06)
1850          (223528 12509.4 -1.01242e+07) (-348595 148667 -9.50611e+06) (-35878.4 -370589 -9.87031e+06) (243214 70069.6 -9.8102e+06) (-280367 76774.4 -8.9884e+06) (272478 31759.3 -9.68044e+06) (-208244 -146774 -1.0139e+07) (65975 103258 -9.10122e+06) (-93401.6 210531 -9.07106e+06) (205982 67133.9 -9.42868e+06) (-293420 -153714 -8.85019e+06)
1900          (222320 12445.2 -1.00622e+07) (-346279 147813 -9.4493e+06) (-35627.8 -368714 -9.81669e+06) (242203 69244.7 -9.76463e+06) (-279145 76716.3 -8.95773e+06) (272530 31855.9 -9.66052e+06) (-207302 -146883 -1.01401e+07) (66535.5 102847 -9.12267e+06) (-93500.2 212104 -9.11706e+06) (207560 68502.6 -9.50287e+06) (-296442 -155039 -8.9439e+06)
1950          (221282 12390.1 -1.00088e+07) (-344284 147079 -9.40043e+06) (-35411.9 -367105 -9.77062e+06) (241338 68531.9 -9.72556e+06) (-278098 76669 -8.93155e+06) (272582 31940.5 -9.64364e+06) (-206499 -146982 -1.01413e+07) (67017.1 102500 -9.14129e+06) (-93587.2 213452 -9.15662e+06) (208911 69669.2 -9.56641e+06) (-299024 -156173 -9.02396e+06)
2000          (220392 12342.9 -9.96297e+06) (-342569 146449 -9.35847e+06) (-35226.3 -365726 -9.7311e+06) (240598 67917.6 -9.6921e+06) (-277202 76630.4 -8.9092e+06) (272632 32014.1 -9.62932e+06) (-205814 -147069 -1.01425e+07) (67430.4 102206 -9.15739e+06) (-93663.5 214605 -9.19057e+06) (210067 70663 -9.62076e+06) (-301228 -157142 -9.09231e+06)
2050          (219629 12302.5 -9.92366e+06) (-341097 145910 -9.32249e+06) (-35067 -364545 -9.69725e+06) (239966 67389.3 -9.66348e+06) (-276437 76598.7 -8.89013e+06) (272678 32077.9 -9.61717e+06) (-205230 -147145 -1.01436e+07) (67784.5 101956 -9.17127e+06) (-93730.2 215592 -9.21967e+06) (211055 71509.6 -9.66722e+06) (-303109 -157969 -9.15065e+06)
2100          (218977 12267.9 -9.88998e+06) (-339836 145447 -9.29168e+06) (-34930.4 -363535 -9.66828e+06) (239426 66935.8 -9.63901e+06) (-275783 76572.5 -8.87386e+06) (272721 32133.1 -9.60685e+06) (-204733 -147212 -1.01447e+07) (68087.5 101745 -9.18322e+06) (-93788.1 216435 -9.24459e+06) (211899 72230.6 -9.70691e+06) (-304714 -158675 -9.2004e+06)
2150          (218419 12238.4 -9.86116e+06) (-338756 145052 -9.26532e+06) (-34813.5 -362672 -9.64352e+06) (238965 66547 -9.61812e+06) (-275225 76550.8 -8.86e+06) (272760 32180.6 -9.59808e+06) (-204309 -147270 -1.01457e+07) (68346.6 101566 -9.19348e+06) (-93838.2 217154 -9.2659e+06) (212620 72844.6 -9.74079e+06) (-306082 -159278 -9.24283e+06)
2200          (217943 12213.2 -9.83653e+06) (-337833 144714 -9.24279e+06) (-34713.6 -361936 -9.62236e+06) (238571 66214.1 -9.60028e+06) (-274748 76532.8 -8.84818e+06) (272794 32221.5 -9.59064e+06) (-203948 -147320 -1.01466e+07) (68568 101414 -9.20227e+06) (-93881.5 217769 -9.28411e+06) (213234 73367.4 -9.76969e+06) (-307248 -159792 -9.27899e+06)
2250          (217517 12219.4 -9.81549e+06) (-337065 144447 -9.22354e+06) (-34628.8 -361257 -9.60433e+06) (238187 66027.6 -9.58509e+06) (-274338 76523.6 -8.83812e+06) (272785 32288.9 -9.58422e+06) (-203737 -147292 -1.01474e+07) (68704.7 101446 -9.20982e+06) (-93960.1 218300 -9.29965e+06) (213764 73696.1 -9.79439e+06) (-308274 -160255 -9.30979e+06)
2300          (217172 12195.6 -9.79756e+06) (-336390 144196 -9.20714e+06) (-34556.1 -360727 -9.58893e+06) (237908 65770 -9.57212e+06) (-273992 76511.3 -8.82954e+06) (272817 32313.7 -9.57884e+06) (-203460 -147340 -1.01481e+07) (68873.6 101312 -9.21625e+06) (-93985.6 218745 -9.31291e+06) (214209 74092.8 -9.81538e+06) (-309114 -160623 -9.33604e+06)
2350          (216905 12149.5 -9.78225e+06) (-335787 143963 -9.19316e+06) (-34498.1 -360319 -9.57579e+06) (237706 65435.7 -9.56106e+06) (-273688 76521.9 -8.82224e+06) (272895 32319.4 -9.57428e+06) (-203126 -147442 -1.01487e+07) (69054 101051 -9.22176e+06) (-93953.5 219127 -9.3242e+06) (214567 74536.1 -9.83331e+06) (-309790 -160904 -9.35838e+06)
2400          (216649 12139.1 -9.76926e+06) (-335302 143794 -9.1813e+06) (-34439.7 -359919 -9.56458e+06) (237496 65272.4 -9.55163e+06) (-273431 76493.4 -8.81606e+06) (272937 32360.8 -9.57042e+06) (-202932 -147467 -1.01493e+07) (69185.6 101011 -9.2264e+06) (-93979 219479 -9.33382e+06) (214906 74804.1 -9.84848e+06) (-310405 -161179 -9.37738e+06)
2450          (216433 12129.2 -9.75815e+06) (-334889 143641 -9.17115e+06) (-34394.9 -359587 -9.55505e+06) (237322 65131.6 -9.54364e+06) (-273218 76482.6 -8.81075e+06) (272944 32373.2 -9.56715e+06) (-202777 -147491 -1.01497e+07) (69283.3 100946 -9.23041e+06) (-94005.7 219746 -9.34202e+06) (215182 75031.6 -9.86144e+06) (-310931 -161413 -9.39357e+06)
2500          (216253 12123.7 -9.74874e+06) (-334535 143511 -9.16249e+06) (-34355 -359321 -9.54706e+06) (237191 65026 -9.53685e+06) (-273058 76465.9 -8.80629e+06) (272934 32374.9 -9.56425e+06) (-202667 -147513 -1.01501e+07) (69372.5 100882 -9.23379e+06) (-94031.9 219948 -9.34897e+06) (215413 75218.2 -9.87243e+06) (-311388 -161623 -9.4073e+06)
2550          (216129 12154.2 -9.74076e+06) (-334215 143428 -9.15522e+06) (-34335.6 -359103 -9.54021e+06) (237038 64894.2 -9.53109e+06) (-272889 76477.5 -8.80245e+06) (272953 32390.3 -9.56189e+06) (-202546 -147515 -1.01503e+07) (69428.2 100832 -9.23665e+06) (-94045.7 220148 -9.35488e+06) (215603 75381.3 -9.88177e+06) (-311757 -161785 -9.41897e+06)
2600          (215961 12095.9 -9.73409e+06) (-333985 143310 -9.14908e+06) (-34287.7 -358861 -9.53447e+06) (236955 64832.1 -9.52618e+06) (-272770 76457.2 -8.79931e+06) (272980 32419.9 -9.55978e+06) (-202446 -147539 -1.01507e+07) (69509.8 100814 -9.23898e+06) (-94053.8 220342 -9.35984e+06) (215790 75534.9 -9.88957e+06) (-312084 -161924 -9.42885e+06)
2650          (215867 12113 -9.72833e+06) (-333765 143238 -9.14384e+06) (-34281 -358714 -9.52952e+06) (236839 64732.4 -9.5221e+06) (-272656 76467.5 -8.79649e+06) (272951 32398.3 -9.55819e+06) (-202362 -147547 -1.01508e+07) (69531.5 100745 -9.24112e+06) (-94070.2 220460 -9.36406e+06) (215919 75647.4 -9.89635e+06) (-312341 -162037 -9.43717e+06)
2700          (215764 12092.5 -9.72342e+06) (-333581 143159 -9.13935e+06) (-34252.5 -358556 -9.52531e+06) (236758 64644.3 -9.51854e+06) (-272548 76481.9 -8.79416e+06) (272978 32415.1 -9.55671e+06) (-202285 -147547 -1.0151e+07) (69571.6 100712 -9.24288e+06) (-94071.8 220592 -9.3677e+06) (216037 75758.4 -9.90206e+06) (-312577 -162135 -9.44434e+06)
2750          (215689 12136.4 -9.71937e+06) (-333436 143138 -9.13566e+06) (-34244.7 -358421 -9.52182e+06) (236664 64670.7 -9.51564e+06) (-272493 76450.9 -8.79222e+06) (272939 32431.3 -9.55549e+06) (-202293 -147522 -1.01512e+07) (69586.8 100782 -9.24433e+06) (-94112.5 220698 -9.37069e+06) (216161 75779.6 -9.90678e+06) (-312797 -162238 -9.45026e+06)
2800          (215620 12080.3 -9.71586e+06) (-333293 143053 -9.13243e+06) (-34226.3 -358330 -9.51879e+06) (236637 64533.1 -9.51305e+06) (-272408 76485.7 -8.79057e+06) (273000 32434.4 -9.55442e+06) (-202158 -147564 -1.01513e+07) (69642.8 100649 -9.24558e+06) (-94074.8 220790 -9.37333e+06) (216225 75937.9 -9.9109e+06) (-312927 -162281 -9.45543e+06)
2850          (215553 12087 -9.71294e+06) (-333198 143020 -9.12977e+06) (-34211.9 -358228 -9.51629e+06) (236586 64545.6 -9.51096e+06) (-272350 76471.6 -8.78917e+06) (272987 32445.2 -9.55352e+06) (-202150 -147551 -1.01515e+07) (69671.9 100702 -9.24662e+06) (-94105.2 220848 -9.37547e+06) (216297 75947.7 -9.91433e+06) (-313074 -162364 -9.4597e+06)
2900          (215546 12113.5 -9.71041e+06) (-333062 143010 -9.12745e+06) (-34208 -358191 -9.51415e+06) (236558 64454.8 -9.5091e+06) (-272305 76468.8 -8.78801e+06) (273027 32450.9 -9.55275e+06) (-202069 -147575 -1.01516e+07) (69698.4 100614 -9.24752e+06) (-94076.5 220921 -9.37732e+06) (216354 76058.3 -9.91726e+06) (-313198 -162398 -9.46339e+06)
2950          (215467 12078.7 -9.70828e+06) (-333020 142952 -9.1255e+06) (-34190.9 -358105 -9.51229e+06) (236526 64466 -9.5076e+06) (-272268 76452.4 -8.7869e+06) (272985 32436.6 -9.55217e+06) (-202074 -147587 -1.01516e+07) (69717.3 100628 -9.24831e+06) (-94104.8 220964 -9.3789e+06) (216423 76071.7 -9.9198e+06) (-313293 -162457 -9.46651e+06)
3000          (215421 12063.6 -9.70643e+06) (-332957 142918 -9.12381e+06) (-34176.6 -358042 -9.51068e+06) (236503 64450 -9.50625e+06) (-272234 76443.8 -8.78602e+06) (272988 32438.3 -9.55163e+06) (-202048 -147595 -1.01517e+07) (69738.8 100618 -9.24898e+06) (-94110.8 221012 -9.38027e+06) (216475 76113.2 -9.92197e+06) (-313378 -162498 -9.46922e+06)
3050          (215402 12090.3 -9.7049e+06) (-332893 142918 -9.12241e+06) (-34179.7 -357996 -9.50939e+06) (236464 64448.5 -9.50515e+06) (-272208 76443 -8.78532e+06) (272985 32450.1 -9.55114e+06) (-202041 -147577 -1.01518e+07) (69743.9 100649 -9.24952e+06) (-94123.2 221048 -9.38139e+06) (216510 76120.1 -9.92374e+06) (-313461 -162534 -9.47146e+06)
3100          (215381 12079.4 -9.70369e+06) (-332841 142896 -9.1213e+06) (-34172.4 -357964 -9.50835e+06) (236445 64403.2 -9.50425e+06) (-272179 76450.1 -8.78475e+06) (273001 32454.6 -9.55076e+06) (-202005 -147587 -1.01518e+07) (69756.6 100613 -9.24994e+06) (-94110.7 221089 -9.3823e+06) (216539 76167.4 -9.92515e+06) (-313515 -162551 -9.47324e+06)
3150          (215358 12071.5 -9.70252e+06) (-332799 142873 -9.12023e+06) (-34163.6 -357935 -9.50734e+06) (236437 64381.9 -9.50342e+06) (-272153 76452.9 -8.78415e+06) (273003 32445.8 -9.55045e+06) (-201980 -147598 -1.01519e+07) (69773.2 100583 -9.25038e+06) (-94116 221113 -9.38319e+06) (216570 76207 -9.92649e+06) (-313564 -162575 -9.47495e+06)
3200          (215315 12059.2 -9.70159e+06) (-332789 142849 -9.11939e+06) (-34160 -357898 -9.50648e+06) (236428 64417.2 -9.50277e+06) (-272157 76419.5 -8.78364e+06) (272957 32422.6 -9.55024e+06) (-201987 -147602 -1.01518e+07) (69776.9 100593 -9.25074e+06) (-94136.8 221115 -9.38383e+06) (216605 76202.9 -9.92768e+06) (-313614 -162607 -9.47634e+06)
3250          (215330 12070.9 -9.70086e+06) (-332726 142857 -9.11871e+06) (-34157.6 -357881 -9.50593e+06) (236399 64337.2 -9.50215e+06) (-272121 76445.8 -8.78347e+06) (273035 32476.8 -9.54981e+06) (-201941 -147599 -1.0152e+07) (69794.1 100588 -9.25088e+06) (-94095.7 221176 -9.38439e+06) (216607 76247.6 -9.92845e+06) (-313657 -162607 -9.47745e+06)
3300          (215336 12090.5 -9.70015e+06) (-332690 142857 -9.11807e+06) (-34161.8 -357882 -9.5053e+06) (236399 64327.4 -9.5017e+06) (-272106 76462.1 -8.78302e+06) (273022 32447.9 -9.54974e+06) (-201925 -147597 -1.01519e+07) (69783 100533 -9.25124e+06) (-94106.2 221160 -9.38491e+06) (216611 76269.9 -9.92931e+06) (-313674 -162616 -9.47842e+06)
3350          (215303 12085 -9.69973e+06) (-332698 142847 -9.11768e+06) (-34158.4 -357844 -9.50493e+06) (236381 64374.5 -9.50139e+06) (-272107 76440.1 -8.78282e+06) (272993 32457 -9.54957e+06) (-201961 -147587 -1.01519e+07) (69791.2 100611 -9.25136e+06) (-94131 221177 -9.38522e+06) (216639 76232.8 -9.92983e+06) (-313705 -162642 -9.47908e+06)
3400          (215293 12078.9 -9.69916e+06) (-332673 142837 -9.11715e+06) (-34153.1 -357832 -9.50444e+06) (236381 64358 -9.50095e+06) (-272098 76431 -8.78254e+06) (273004 32459.6 -9.54936e+06) (-201940 -147598 -1.01519e+07) (69804.9 100593 -9.25154e+06) (-94122.5 221199 -9.38564e+06) (216656 76260.8 -9.93052e+06) (-313737 -162654 -9.47998e+06)
3450          (215284 12072.5 -9.69878e+06) (-332660 142828 -9.11681e+06) (-34147.5 -357820 -9.5041e+06) (236383 64352 -9.50067e+06) (-272091 76427.9 -8.78235e+06) (273008 32456.9 -9.54922e+06) (-201926 -147603 -1.01519e+07) (69813.3 100579 -9.25166e+06) (-94121.9 221205 -9.38592e+06) (216666 76278.1 -9.93098e+06) (-313756 -162662 -9.48058e+06)
3500          (215283 12074.3 -9.69859e+06) (-332650 142825 -9.11663e+06) (-34151.8 -357814 -9.50395e+06) (236363 64334.6 -9.50052e+06) (-272080 76445.2 -8.78225e+06) (273008 32460.7 -9.54916e+06) (-201924 -147597 -1.01519e+07) (69804.7 100575 -9.25172e+06) (-94117 221217 -9.38606e+06) (216666 76281.6 -9.93121e+06) (-313760 -162659 -9.48088e+06)
3550          (215282 12069.1 -9.69841e+06) (-332640 142821 -9.11647e+06) (-34149.7 -357813 -9.50378e+06) (236375 64324.3 -9.50037e+06) (-272082 76438.8 -8.78217e+06) (273019 32459.3 -9.54907e+06) (-201902 -147609 -1.01519e+07) (69821.8 100557 -9.25176e+06) (-94111.1 221221 -9.3862e+06) (216670 76305.4 -9.93144e+06) (-313766 -162660 -9.48119e+06)
3600          (215274 12071.8 -9.69823e+06) (-332637 142818 -9.1163e+06) (-34147.9 -357804 -9.50363e+06) (236361 64331.5 -9.50024e+06) (-272072 76441.9 -8.78205e+06) (273007 32457.2 -9.54903e+06) (-201916 -147598 -1.01519e+07) (69808.9 100566 -9.25183e+06) (-94117.4 221225 -9.38633e+06) (216677 76293.2 -9.93167e+06) (-313781 -162669 -9.4815e+06)
3650          (215272 12069.7 -9.69806e+06) (-332629 142817 -9.11614e+06) (-34148.5 -357798 -9.50346e+06) (236364 64326.4 -9.5001e+06) (-272076 76437.2 -8.78198e+06) (273014 32460.6 -9.54893e+06) (-201903 -147604 -1.01519e+07) (69821 100566 -9.25185e+06) (-94114.6 221234 -9.38645e+06) (216682 76305.8 -9.93189e+06) (-313789 -162670 -9.48183e+06)
3700          (215272 12069.7 -9.69806e+06) (-332629 142817 -9.11614e+06) (-34148.5 -357798 -9.50346e+06) (236364 64326.4 -9.5001e+06) (-272076 76437.2 -8.78198e+06) (273014 32460.6 -9.54893e+06) (-201903 -147604 -1.01519e+07) (69821 100566 -9.25185e+06) (-94114.6 221234 -9.38645e+06) (216682 76305.8 -9.93189e+06) (-313789 -162670 -9.48183e+06)
3750          (215272 12069.7 -9.69806e+06) (-332629 142817 -9.11614e+06) (-34148.5 -357798 -9.50346e+06) (236364 64326.4 -9.5001e+06) (-272076 76437.2 -8.78198e+06) (273014 32460.6 -9.54893e+06) (-201903 -147604 -1.01519e+07) (69821 100566 -9.25185e+06) (-94114.6 221234 -9.38645e+06) (216682 76305.8 -9.93189e+06) (-313789 -162670 -9.48183e+06)
3800          (215272 12069.7 -9.69806e+06) (-332629 142817 -9.11614e+06) (-34148.5 -357798 -9.50346e+06) (236364 64326.4 -9.5001e+06) (-272076 76437.2 -8.78198e+06) (273014 32460.6 -9.54893e+06) (-201903 -147604 -1.01519e+07) (69821 100566 -9.25185e+06) (-94114.6 221234 -9.38645e+06) (216682 76305.8 -9.93189e+06) (-313789 -162670 -9.48183e+06)
3850          (215272 12069.7 -9.69806e+06) (-332629 142817 -9.11614e+06) (-34148.5 -357798 -9.50346e+06) (236364 64326.4 -9.5001e+06) (-272076 76437.2 -8.78198e+06) (273014 32460.6 -9.54893e+06) (-201903 -147604 -1.01519e+07) (69821 100566 -9.25185e+06) (-94114.6 221234 -9.38645e+06) (216682 76305.8 -9.93189e+06) (-313789 -162670 -9.48183e+06)
3900          (215272 12069.7 -9.69806e+06) (-332629 142817 -9.11614e+06) (-34148.5 -357798 -9.50346e+06) (236364 64326.4 -9.5001e+06) (-272076 76437.2 -8.78198e+06) (273014 32460.6 -9.54893e+06) (-201903 -147604 -1.01519e+07) (69821 100566 -9.25185e+06) (-94114.6 221234 -9.38645e+06) (216682 76305.8 -9.93189e+06) (-313789 -162670 -9.48183e+06)
3950          (215272 12069.7 -9.69806e+06) (-332629 142817 -9.11614e+06) (-34148.5 -357798 -9.50346e+06) (236364 64326.4 -9.5001e+06) (-272076 76437.2 -8.78198e+06) (273014 32460.6 -9.54893e+06) (-201903 -147604 -1.01519e+07) (69821 100566 -9.25185e+06) (-94114.6 221234 -9.38645e+06) (216682 76305.8 -9.93189e+06) (-313789 -162670 -9.48183e+06)
4000          (215272 12069.7 -9.69806e+06) (-332629 142817 -9.11614e+06) (-34148.5 -357798 -9.50346e+06) (236364 64326.4 -9.5001e+06) (-272076 76437.2 -8.78198e+06) (273014 32460.6 -9.54893e+06) (-201903 -147604 -1.01519e+07) (69821 100566 -9.25185e+06) (-94114.6 221234 -9.38645e+06) (216682 76305.8 -9.93189e+06) (-313789 -162670 -9.48183e+06)
4050          (215272 12069.7 -9.69806e+06) (-332629 142817 -9.11614e+06) (-34148.5 -357798 -9.50346e+06) (236364 64326.4 -9.5001e+06) (-272076 76437.2 -8.78198e+06) (273014 32460.6 -9.54893e+06) (-201903 -147604 -1.01519e+07) (69821 100566 -9.25185e+06) (-94114.6 221234 -9.38645e+06) (216682 76305.8 -9.93189e+06) (-313789 -162670 -9.48183e+06)
4100          (215272 12069.7 -9.69806e+06) (-332629 142817 -9.11614e+06) (-34148.5 -357798 -9.50346e+06) (236364 64326.4 -9.5001e+06) (-272076 76437.2 -8.78198e+06) (273014 32460.6 -9.54893e+06) (-201903 -147604 -1.01519e+07) (69821 100566 -9.25185e+06) (-94114.6 221234 -9.38645e+06) (216682 76305.8 -9.93189e+06) (-313789 -162670 -9.48183e+06)
4150          (215272 12069.7 -9.69806e+06) (-332629 142817 -9.11614e+06) (-34148.5 -357798 -9.50346e+06) (236364 64326.4 -9.5001e+06) (-272076 76437.2 -8.78198e+06) (273014 32460.6 -9.54893e+06) (-201903 -147604 -1.01519e+07) (69821 100566 -9.25185e+06) (-94114.6 221234 -9.38645e+06) (216682 76305.8 -9.93189e+06) (-313789 -162670 -9.48183e+06)
4200          (215272 12069.7 -9.69806e+06) (-332629 142817 -9.11614e+06) (-34148.5 -357798 -9.50346e+06) (236364 64326.4 -9.5001e+06) (-272076 76437.2 -8.78198e+06) (273014 32460.6 -9.54893e+06) (-201903 -147604 -1.01519e+07) (69821 100566 -9.25185e+06) (-94114.6 221234 -9.38645e+06) (216682 76305.8 -9.93189e+06) (-313789 -162670 -9.48183e+06)
4250          (215272 12069.7 -9.69806e+06) (-332629 142817 -9.11614e+06) (-34148.5 -357798 -9.50346e+06) (236364 64326.4 -9.5001e+06) (-272076 76437.2 -8.78198e+06) (273014 32460.6 -9.54893e+06) (-201903 -147604 -1.01519e+07) (69821 100566 -9.25185e+06) (-94114.6 221234 -9.38645e+06) (216682 76305.8 -9.93189e+06) (-313789 -162670 -9.48183e+06)