# Probe 0 (0.0015 0.0015 0)
# Probe 1 (0.0015 0.0015 0.002)
# Probe 2 (0.0015 0.0015 0.004)
# Probe 3 (0.0015 0.0015 0.006)
# Probe 4 (0.0015 0.0015 0.008)
# Probe 5 (0.0015 0.0015 0.01)
# Probe 6 (0.0015 0.0015 0.012)
# Probe 7 (0.0015 0.0015 0.014)
# Probe 8 (0.0015 0.0015 0.016)
# Probe 9 (0.0015 0.0015 0.018)
# Probe 10 (0.0015 0.0015 0.02)
# Time        0             1             2             3             4             5             6             7             8             9             10           
50            (28.9003 28.9003 -1.81778e+07) (28.9003 28.9003 -1.81778e+07) (14.3623 14.3623 -1.59504e+07) (-1.59161 -1.59162 -1.27394e+07) (-12.3807 -12.3808 -9.33441e+06) (-15.0885 -15.089 -6.53559e+06) (-13.5912 -13.5913 -4.77131e+06) (-10.5074 -10.5073 -4.09426e+06) (-6.81754 -6.81686 -4.37532e+06) (-3.70756 -3.7075 -5.42994e+06) (5.81705 5.81706 -7.00849e+06)
100           (-34.9226 -34.9226 -1.3636e+07) (-34.9226 -34.9226 -1.3636e+07) (-29.8564 -29.8564 -1.30075e+07) (-21.8742 -21.8742 -1.20039e+07) (-8.64595 -8.64603 -1.07046e+07) (5.56615 5.56551 -9.27597e+06) (15.7405 15.7404 -7.94648e+06) (19.3369 19.337 -6.93422e+06) (17.4414 17.4424 -6.36996e+06) (11.8653 11.8655 -6.2615e+06) (-0.0949045 -0.094895 -6.49539e+06)
150           (27.1255 27.1255 -1.18402e+07) (27.1255 27.1255 -1.18402e+07) (23.9908 23.9908 -1.15656e+07) (19.9922 19.9922 -1.11205e+07) (13.0354 13.0356 -1.05189e+07) (4.15531 4.15687 -9.79694e+06) (-4.96903 -4.96889 -9.01602e+06) (-12.0443 -12.0448 -8.25919e+06) (-14.9086 -14.9135 -7.61557e+06) (-12.7911 -12.7916 -7.15637e+06) (-8.02104 -8.02108 -6.91229e+06)
200           (-18.6564 -18.6564 -1.09332e+07) (-18.6564 -18.6564 -1.09332e+07) (-16.7269 -16.7269 -1.07853e+07) (-14.3098 -14.3098 -1.05437e+07) (-10.5857 -10.5857 -1.02104e+07) (-5.95661 -5.9566 -9.79538e+06) (-0.933801 -0.933817 -9.31755e+06) (3.84863 3.84845 -8.80658e+06) (7.84365 7.84219 -8.30286e+06) (10.9033 10.9031 -7.85568e+06) (13.7916 13.7916 -7.52125e+06)
250           (-11.3524 -11.3524 -1.04024e+07) (-11.3524 -11.3524 -1.04024e+07) (-10.4447 -10.4447 -1.03124e+07) (-9.32245 -9.32244 -1.01646e+07) (-7.43105 -7.43103 -9.95898e+06) (-4.88326 -4.88309 -9.69847e+06) (-1.82445 -1.82441 -9.39049e+06) (1.50767 1.50787 -9.04777e+06) (4.81005 4.81186 -8.69002e+06) (7.75953 7.75973 -8.34628e+06) (10.5331 10.5331 -8.06097e+06)
300           (-7.93014 -7.93014 -1.00644e+07) (-7.93014 -7.93014 -1.00644e+07) (-7.40426 -7.40426 -1.00061e+07) (-6.75752 -6.75752 -9.91011e+06) (-5.58349 -5.58348 -9.77607e+06) (-3.92022 -3.92008 -9.60521e+06) (-1.81266 -1.81263 -9.40117e+06) (0.635942 0.636137 -9.17073e+06) (3.2475 3.24921 -8.92503e+06) (5.71537 5.71556 -8.68179e+06) (8.04883 8.04885 -8.47134e+06)
350           (-5.51834 -5.51834 -9.84056e+06) (-5.51834 -5.51834 -9.84056e+06) (-5.18421 -5.18421 -9.80166e+06) (-4.77434 -4.77434 -9.73773e+06) (-4.00139 -4.00138 -9.64836e+06) (-2.88131 -2.8812 -9.53428e+06) (-1.42974 -1.42972 -9.39767e+06) (0.301109 0.301256 -9.2427e+06) (2.20294 2.20423 -9.07633e+06) (4.04517 4.04532 -8.9099e+06) (5.80721 5.80722 -8.76348e+06)
400           (-0.698861 -0.698861 -9.6901e+06) (-0.698861 -0.698861 -9.6901e+06) (-0.712655 -0.712655 -9.66394e+06) (-0.628365 -0.628362 -9.62097e+06) (-0.535943 -0.5359 -9.56094e+06) (-0.386735 -0.386328 -9.48435e+06) (-0.179129 -0.179072 -9.39265e+06) (0.0731306 0.0733134 -9.28857e+06) (0.342019 0.343678 -9.17669e+06) (0.597403 0.597582 -9.06443e+06) (0.455739 0.455754 -8.96507e+06)
450           (2.93459 2.93459 -9.58862e+06) (2.93459 2.93459 -9.58862e+06) (2.3679 2.3679 -9.571e+06) (1.74323 1.74323 -9.54209e+06) (1.01636 1.01641 -9.50173e+06) (0.387395 0.387816 -9.45029e+06) (-0.0432105 -0.0431458 -9.38876e+06) (-0.275392 -0.275191 -9.31899e+06) (-0.417165 -0.415432 -9.24402e+06) (-0.633941 -0.633745 -9.16878e+06) (-1.56994 -1.56993 -9.10206e+06)
500           (1.9983 1.9983 -9.52025e+06) (1.9983 1.9983 -9.52025e+06) (1.58588 1.58588 -9.5084e+06) (1.13979 1.13979 -9.48897e+06) (0.647505 0.647537 -9.46188e+06) (0.24539 0.245674 -9.42737e+06) (-0.0133909 -0.0133472 -9.38614e+06) (-0.149571 -0.149435 -9.33943e+06) (-0.24935 -0.248179 -9.28929e+06) (-0.423165 -0.423032 -9.239e+06) (-1.09362 -1.09361 -9.19438e+06)
550           (9.86763 9.86763 -9.47429e+06) (9.86763 9.86763 -9.47429e+06) (9.55916 9.55916 -9.46634e+06) (9.17904 9.17905 -9.4533e+06) (8.15142 8.15146 -9.43514e+06) (6.48714 6.48749 -9.41203e+06) (4.18131 4.18136 -9.38443e+06) (1.25873 1.25885 -9.3532e+06) (-2.2104 -2.20937 -9.31971e+06) (-6.09228 -6.09217 -9.28613e+06) (-10.9172 -10.9172 -9.25635e+06)
600           (-6.34722 -6.34722 -9.44347e+06) (-6.34722 -6.34722 -9.44347e+06) (-5.94199 -5.94199 -9.43814e+06) (-5.52832 -5.5283 -9.4294e+06) (-4.71365 -4.71351 -9.41724e+06) (-3.50898 -3.50802 -9.40177e+06) (-1.91728 -1.91711 -9.38332e+06) (0.0316487 0.0319198 -9.36246e+06) (2.27149 2.27337 -9.34009e+06) (4.66341 4.66367 -9.3177e+06) (7.42466 7.42469 -9.29784e+06)
650           (-1.57978 -1.57978 -9.42285e+06) (-1.57978 -1.57978 -9.42285e+06) (-1.05889 -1.05889 -9.41928e+06) (-0.645043 -0.645012 -9.41343e+06) (-0.164074 -0.163909 -9.40529e+06) (0.35961 0.360269 -9.39495e+06) (0.905472 0.905654 -9.38261e+06) (1.44583 1.44604 -9.36867e+06) (1.93987 1.94108 -9.35374e+06) (2.31247 2.31268 -9.33879e+06) (2.67844 2.67848 -9.32554e+06)
700           (0.217325 0.217424 -9.40908e+06) (0.217325 0.217424 -9.40908e+06) (-0.261311 -0.260957 -9.40669e+06) (-0.809127 -0.808367 -9.40278e+06) (-1.17318 -1.17246 -9.39734e+06) (-1.37322 -1.37164 -9.39042e+06) (-1.26995 -1.26995 -9.38216e+06) (-0.782592 -0.783195 -9.37284e+06) (0.190299 0.18995 -9.36285e+06) (1.63698 1.63689 -9.35286e+06) (4.09172 4.09193 -9.34399e+06)
750           (-1.9351 -1.93505 -9.40006e+06) (-1.9351 -1.93505 -9.40006e+06) (-1.31739 -1.31728 -9.39843e+06) (-0.784355 -0.784197 -9.39576e+06) (-0.216432 -0.216227 -9.39206e+06) (0.28431 0.284968 -9.38736e+06) (0.741408 0.741442 -9.38179e+06) (1.16929 1.16925 -9.37551e+06) (1.58972 1.59047 -9.36881e+06) (1.98553 1.98554 -9.36213e+06) (3.02638 3.02639 -9.35623e+06)
800           (-1.25009 -1.25028 -9.39416e+06) (-1.25009 -1.25028 -9.39416e+06) (-2.20866 -2.20905 -9.39304e+06) (-3.26726 -3.26783 -9.3912e+06) (-3.77235 -3.77288 -9.38864e+06) (-3.13333 -3.13362 -9.3854e+06) (-1.54791 -1.54781 -9.38155e+06) (0.671798 0.672264 -9.37723e+06) (3.02922 3.02977 -9.37266e+06) (4.62887 4.62921 -9.36813e+06) (2.03435 2.03436 -9.36422e+06)
850           (-0.501755 -0.501892 -9.39025e+06) (-0.501755 -0.501892 -9.39025e+06) (-1.26767 -1.26794 -9.38946e+06) (-2.28852 -2.2889 -9.38817e+06) (-2.82594 -2.8261 -9.38637e+06) (-2.2366 -2.23556 -9.38411e+06) (-0.666237 -0.665938 -9.38142e+06) (1.55783 1.55844 -9.37842e+06) (3.86618 3.86846 -9.37525e+06) (5.06277 5.06331 -9.37213e+06) (1.60366 1.60369 -9.36948e+06)
900           (-6.43146 -6.43139 -9.3878e+06) (-6.43146 -6.43139 -9.3878e+06) (-6.27053 -6.27038 -9.38719e+06) (-5.75436 -5.75412 -9.38622e+06) (-4.87937 -4.87909 -9.38489e+06) (-3.83198 -3.83135 -9.38323e+06) (-2.5709 -2.57091 -9.3813e+06) (-1.07654 -1.07668 -9.37916e+06) (0.644458 0.644941 -9.37692e+06) (2.62679 2.6267 -9.37474e+06) (6.2802 6.28019 -9.37284e+06)
950           (-1.84759 -1.84752 -9.38602e+06) (-1.84759 -1.84752 -9.38602e+06) (-1.79035 -1.79019 -9.38556e+06) (-1.37188 -1.37164 -9.38482e+06) (-0.914788 -0.914916 -9.38383e+06) (-0.681263 -0.681523 -9.38261e+06) (-0.633969 -0.634445 -9.38121e+06) (-0.751084 -0.75203 -9.37968e+06) (-0.985028 -0.986066 -9.3781e+06) (-1.11073 -1.11168 -9.37659e+06) (1.2309 1.2309 -9.37528e+06)
1000          (-1.9062 -1.90614 -9.38507e+06) (-1.9062 -1.90614 -9.38507e+06) (-1.80973 -1.80959 -9.38469e+06) (-1.35094 -1.35072 -9.38408e+06) (-0.821036 -0.821508 -9.38327e+06) (-0.526696 -0.52759 -9.38228e+06) (-0.460729 -0.461619 -9.38116e+06) (-0.657193 -0.658976 -9.37995e+06) (-1.12512 -1.12777 -9.37873e+06) (-1.61464 -1.61652 -9.37758e+06) (1.36169 1.36167 -9.37658e+06)
1050          (-1.09304 -1.09308 -9.38435e+06) (-1.09304 -1.09308 -9.38435e+06) (-0.966369 -0.966457 -9.38402e+06) (-0.978588 -0.978723 -9.38351e+06) (-0.921507 -0.920898 -9.38284e+06) (-0.563226 -0.562857 -9.38202e+06) (0.0929245 0.0938891 -9.38111e+06) (1.09115 1.09324 -9.38014e+06) (2.46224 2.46362 -9.37917e+06) (4.00394 4.00615 -9.37829e+06) (2.21896 2.21897 -9.37762e+06)
1100          (-1.11876 -1.11879 -9.38407e+06) (-1.11876 -1.11879 -9.38407e+06) (-0.995977 -0.996055 -9.38376e+06) (-0.997651 -0.997765 -9.38329e+06) (-0.932744 -0.932001 -9.38266e+06) (-0.585933 -0.585362 -9.38191e+06) (0.0377303 0.0388486 -9.38107e+06) (0.99218 0.994758 -9.3802e+06) (2.33369 2.33561 -9.37935e+06) (3.94644 3.94917 -9.37859e+06) (2.29113 2.29116 -9.37804e+06)
1150          (-1.58756 -1.58753 -9.38393e+06) (-1.58756 -1.58753 -9.38393e+06) (-1.52968 -1.5296 -9.38363e+06) (-1.21034 -1.21021 -9.38316e+06) (-0.807213 -0.808117 -9.38256e+06) (-0.542062 -0.543536 -9.38184e+06) (-0.40496 -0.406291 -9.38105e+06) (-0.466897 -0.470276 -9.38023e+06) (-0.82213 -0.828598 -9.37946e+06) (-1.48481 -1.4884 -9.37879e+06) (1.17503 1.17499 -9.37826e+06)
1200          (-1.58756 -1.58753 -9.38393e+06) (-1.58756 -1.58753 -9.38393e+06) (-1.52968 -1.5296 -9.38363e+06) (-1.21034 -1.21021 -9.38316e+06) (-0.807213 -0.808117 -9.38256e+06) (-0.542062 -0.543536 -9.38184e+06) (-0.40496 -0.406291 -9.38105e+06) (-0.466897 -0.470276 -9.38023e+06) (-0.82213 -0.828598 -9.37946e+06) (-1.48481 -1.4884 -9.37879e+06) (1.17503 1.17499 -9.37826e+06)
1250          (-1.58756 -1.58753 -9.38393e+06) (-1.58756 -1.58753 -9.38393e+06) (-1.52968 -1.5296 -9.38363e+06) (-1.21034 -1.21021 -9.38316e+06) (-0.807213 -0.808117 -9.38256e+06) (-0.542062 -0.543536 -9.38184e+06) (-0.40496 -0.406291 -9.38105e+06) (-0.466897 -0.470276 -9.38023e+06) (-0.82213 -0.828598 -9.37946e+06) (-1.48481 -1.4884 -9.37879e+06) (1.17503 1.17499 -9.37826e+06)
1300          (-1.58756 -1.58753 -9.38393e+06) (-1.58756 -1.58753 -9.38393e+06) (-1.52968 -1.5296 -9.38363e+06) (-1.21034 -1.21021 -9.38316e+06) (-0.807213 -0.808117 -9.38256e+06) (-0.542062 -0.543536 -9.38184e+06) (-0.40496 -0.406291 -9.38105e+06) (-0.466897 -0.470276 -9.38023e+06) (-0.82213 -0.828598 -9.37946e+06) (-1.48481 -1.4884 -9.37879e+06) (1.17503 1.17499 -9.37826e+06)
1350          (-1.58756 -1.58753 -9.38393e+06) (-1.58756 -1.58753 -9.38393e+06) (-1.52968 -1.5296 -9.38363e+06) (-1.21034 -1.21021 -9.38316e+06) (-0.807213 -0.808117 -9.38256e+06) (-0.542062 -0.543536 -9.38184e+06) (-0.40496 -0.406291 -9.38105e+06) (-0.466897 -0.470276 -9.38023e+06) (-0.82213 -0.828598 -9.37946e+06) (-1.48481 -1.4884 -9.37879e+06) (1.17503 1.17499 -9.37826e+06)
1400          (-1.58756 -1.58753 -9.38393e+06) (-1.58756 -1.58753 -9.38393e+06) (-1.52968 -1.5296 -9.38363e+06) (-1.21034 -1.21021 -9.38316e+06) (-0.807213 -0.808117 -9.38256e+06) (-0.542062 -0.543536 -9.38184e+06) (-0.40496 -0.406291 -9.38105e+06) (-0.466897 -0.470276 -9.38023e+06) (-0.82213 -0.828598 -9.37946e+06) (-1.48481 -1.4884 -9.37879e+06) (1.17503 1.17499 -9.37826e+06)
1450          (-1.58756 -1.58753 -9.38393e+06) (-1.58756 -1.58753 -9.38393e+06) (-1.52968 -1.5296 -9.38363e+06) (-1.21034 -1.21021 -9.38316e+06) (-0.807213 -0.808117 -9.38256e+06) (-0.542062 -0.543536 -9.38184e+06) (-0.40496 -0.406291 -9.38105e+06) (-0.466897 -0.470276 -9.38023e+06) (-0.82213 -0.828598 -9.37946e+06) (-1.48481 -1.4884 -9.37879e+06) (1.17503 1.17499 -9.37826e+06)
1500          (-1.58756 -1.58753 -9.38393e+06) (-1.58756 -1.58753 -9.38393e+06) (-1.52968 -1.5296 -9.38363e+06) (-1.21034 -1.21021 -9.38316e+06) (-0.807213 -0.808117 -9.38256e+06) (-0.542062 -0.543536 -9.38184e+06) (-0.40496 -0.406291 -9.38105e+06) (-0.466897 -0.470276 -9.38023e+06) (-0.82213 -0.828598 -9.37946e+06) (-1.48481 -1.4884 -9.37879e+06) (1.17503 1.17499 -9.37826e+06)
1550          (-1.58756 -1.58753 -9.38393e+06) (-1.58756 -1.58753 -9.38393e+06) (-1.52968 -1.5296 -9.38363e+06) (-1.21034 -1.21021 -9.38316e+06) (-0.807213 -0.808117 -9.38256e+06) (-0.542062 -0.543536 -9.38184e+06) (-0.40496 -0.406291 -9.38105e+06) (-0.466897 -0.470276 -9.38023e+06) (-0.82213 -0.828598 -9.37946e+06) (-1.48481 -1.4884 -9.37879e+06) (1.17503 1.17499 -9.37826e+06)
1600          (-1.58756 -1.58753 -9.38393e+06) (-1.58756 -1.58753 -9.38393e+06) (-1.52968 -1.5296 -9.38363e+06) (-1.21034 -1.21021 -9.38316e+06) (-0.807213 -0.808117 -9.38256e+06) (-0.542062 -0.543536 -9.38184e+06) (-0.40496 -0.406291 -9.38105e+06) (-0.466897 -0.470276 -9.38023e+06) (-0.82213 -0.828598 -9.37946e+06) (-1.48481 -1.4884 -9.37879e+06) (1.17503 1.17499 -9.37826e+06)
1650          (-1.58756 -1.58753 -9.38393e+06) (-1.58756 -1.58753 -9.38393e+06) (-1.52968 -1.5296 -9.38363e+06) (-1.21034 -1.21021 -9.38316e+06) (-0.807213 -0.808117 -9.38256e+06) (-0.542062 -0.543536 -9.38184e+06) (-0.40496 -0.406291 -9.38105e+06) (-0.466897 -0.470276 -9.38023e+06) (-0.82213 -0.828598 -9.37946e+06) (-1.48481 -1.4884 -9.37879e+06) (1.17503 1.17499 -9.37826e+06)
1700          (-1.58756 -1.58753 -9.38393e+06) (-1.58756 -1.58753 -9.38393e+06) (-1.52968 -1.5296 -9.38363e+06) (-1.21034 -1.21021 -9.38316e+06) (-0.807213 -0.808117 -9.38256e+06) (-0.542062 -0.543536 -9.38184e+06) (-0.40496 -0.406291 -9.38105e+06) (-0.466897 -0.470276 -9.38023e+06) (-0.82213 -0.828598 -9.37946e+06) (-1.48481 -1.4884 -9.37879e+06) (1.17503 1.17499 -9.37826e+06)
1750          (-1.58756 -1.58753 -9.38393e+06) (-1.58756 -1.58753 -9.38393e+06) (-1.52968 -1.5296 -9.38363e+06) (-1.21034 -1.21021 -9.38316e+06) (-0.807213 -0.808117 -9.38256e+06) (-0.542062 -0.543536 -9.38184e+06) (-0.40496 -0.406291 -9.38105e+06) (-0.466897 -0.470276 -9.38023e+06) (-0.82213 -0.828598 -9.37946e+06) (-1.48481 -1.4884 -9.37879e+06) (1.17503 1.17499 -9.37826e+06)
1800          (-1.58756 -1.58753 -9.38393e+06) (-1.58756 -1.58753 -9.38393e+06) (-1.52968 -1.5296 -9.38363e+06) (-1.21034 -1.21021 -9.38316e+06) (-0.807213 -0.808117 -9.38256e+06) (-0.542062 -0.543536 -9.38184e+06) (-0.40496 -0.406291 -9.38105e+06) (-0.466897 -0.470276 -9.38023e+06) (-0.82213 -0.828598 -9.37946e+06) (-1.48481 -1.4884 -9.37879e+06) (1.17503 1.17499 -9.37826e+06)
1850          (-1.58756 -1.58753 -9.38393e+06) (-1.58756 -1.58753 -9.38393e+06) (-1.52968 -1.5296 -9.38363e+06) (-1.21034 -1.21021 -9.38316e+06) (-0.807213 -0.808117 -9.38256e+06) (-0.542062 -0.543536 -9.38184e+06) (-0.40496 -0.406291 -9.38105e+06) (-0.466897 -0.470276 -9.38023e+06) (-0.82213 -0.828598 -9.37946e+06) (-1.48481 -1.4884 -9.37879e+06) (1.17503 1.17499 -9.37826e+06)
1900          (-1.58756 -1.58753 -9.38393e+06) (-1.58756 -1.58753 -9.38393e+06) (-1.52968 -1.5296 -9.38363e+06) (-1.21034 -1.21021 -9.38316e+06) (-0.807213 -0.808117 -9.38256e+06) (-0.542062 -0.543536 -9.38184e+06) (-0.40496 -0.406291 -9.38105e+06) (-0.466897 -0.470276 -9.38023e+06) (-0.82213 -0.828598 -9.37946e+06) (-1.48481 -1.4884 -9.37879e+06) (1.17503 1.17499 -9.37826e+06)
1950          (-1.58756 -1.58753 -9.38393e+06) (-1.58756 -1.58753 -9.38393e+06) (-1.52968 -1.5296 -9.38363e+06) (-1.21034 -1.21021 -9.38316e+06) (-0.807213 -0.808117 -9.38256e+06) (-0.542062 -0.543536 -9.38184e+06) (-0.40496 -0.406291 -9.38105e+06) (-0.466897 -0.470276 -9.38023e+06) (-0.82213 -0.828598 -9.37946e+06) (-1.48481 -1.4884 -9.37879e+06) (1.17503 1.17499 -9.37826e+06)
2000          (-1.58756 -1.58753 -9.38393e+06) (-1.58756 -1.58753 -9.38393e+06) (-1.52968 -1.5296 -9.38363e+06) (-1.21034 -1.21021 -9.38316e+06) (-0.807213 -0.808117 -9.38256e+06) (-0.542062 -0.543536 -9.38184e+06) (-0.40496 -0.406291 -9.38105e+06) (-0.466897 -0.470276 -9.38023e+06) (-0.82213 -0.828598 -9.37946e+06) (-1.48481 -1.4884 -9.37879e+06) (1.17503 1.17499 -9.37826e+06)
2050          (-1.58756 -1.58753 -9.38393e+06) (-1.58756 -1.58753 -9.38393e+06) (-1.52968 -1.5296 -9.38363e+06) (-1.21034 -1.21021 -9.38316e+06) (-0.807213 -0.808117 -9.38256e+06) (-0.542062 -0.543536 -9.38184e+06) (-0.40496 -0.406291 -9.38105e+06) (-0.466897 -0.470276 -9.38023e+06) (-0.82213 -0.828598 -9.37946e+06) (-1.48481 -1.4884 -9.37879e+06) (1.17503 1.17499 -9.37826e+06)
2100          (-1.58756 -1.58753 -9.38393e+06) (-1.58756 -1.58753 -9.38393e+06) (-1.52968 -1.5296 -9.38363e+06) (-1.21034 -1.21021 -9.38316e+06) (-0.807213 -0.808117 -9.38256e+06) (-0.542062 -0.543536 -9.38184e+06) (-0.40496 -0.406291 -9.38105e+06) (-0.466897 -0.470276 -9.38023e+06) (-0.82213 -0.828598 -9.37946e+06) (-1.48481 -1.4884 -9.37879e+06) (1.17503 1.17499 -9.37826e+06)
2150          (-1.58756 -1.58753 -9.38393e+06) (-1.58756 -1.58753 -9.38393e+06) (-1.52968 -1.5296 -9.38363e+06) (-1.21034 -1.21021 -9.38316e+06) (-0.807213 -0.808117 -9.38256e+06) (-0.542062 -0.543536 -9.38184e+06) (-0.40496 -0.406291 -9.38105e+06) (-0.466897 -0.470276 -9.38023e+06) (-0.82213 -0.828598 -9.37946e+06) (-1.48481 -1.4884 -9.37879e+06) (1.17503 1.17499 -9.37826e+06)
2200          (-1.58756 -1.58753 -9.38393e+06) (-1.58756 -1.58753 -9.38393e+06) (-1.52968 -1.5296 -9.38363e+06) (-1.21034 -1.21021 -9.38316e+06) (-0.807213 -0.808117 -9.38256e+06) (-0.542062 -0.543536 -9.38184e+06) (-0.40496 -0.406291 -9.38105e+06) (-0.466897 -0.470276 -9.38023e+06) (-0.82213 -0.828598 -9.37946e+06) (-1.48481 -1.4884 -9.37879e+06) (1.17503 1.17499 -9.37826e+06)
2250          (-1.58756 -1.58753 -9.38393e+06) (-1.58756 -1.58753 -9.38393e+06) (-1.52968 -1.5296 -9.38363e+06) (-1.21034 -1.21021 -9.38316e+06) (-0.807213 -0.808117 -9.38256e+06) (-0.542062 -0.543536 -9.38184e+06) (-0.40496 -0.406291 -9.38105e+06) (-0.466897 -0.470276 -9.38023e+06) (-0.82213 -0.828598 -9.37946e+06) (-1.48481 -1.4884 -9.37879e+06) (1.17503 1.17499 -9.37826e+06)
2300          (-1.58756 -1.58753 -9.38393e+06) (-1.58756 -1.58753 -9.38393e+06) (-1.52968 -1.5296 -9.38363e+06) (-1.21034 -1.21021 -9.38316e+06) (-0.807213 -0.808117 -9.38256e+06) (-0.542062 -0.543536 -9.38184e+06) (-0.40496 -0.406291 -9.38105e+06) (-0.466897 -0.470276 -9.38023e+06) (-0.82213 -0.828598 -9.37946e+06) (-1.48481 -1.4884 -9.37879e+06) (1.17503 1.17499 -9.37826e+06)
2350          (-1.58756 -1.58753 -9.38393e+06) (-1.58756 -1.58753 -9.38393e+06) (-1.52968 -1.5296 -9.38363e+06) (-1.21034 -1.21021 -9.38316e+06) (-0.807213 -0.808117 -9.38256e+06) (-0.542062 -0.543536 -9.38184e+06) (-0.40496 -0.406291 -9.38105e+06) (-0.466897 -0.470276 -9.38023e+06) (-0.82213 -0.828598 -9.37946e+06) (-1.48481 -1.4884 -9.37879e+06) (1.17503 1.17499 -9.37826e+06)
2400          (-1.58756 -1.58753 -9.38393e+06) (-1.58756 -1.58753 -9.38393e+06) (-1.52968 -1.5296 -9.38363e+06) (-1.21034 -1.21021 -9.38316e+06) (-0.807213 -0.808117 -9.38256e+06) (-0.542062 -0.543536 -9.38184e+06) (-0.40496 -0.406291 -9.38105e+06) (-0.466897 -0.470276 -9.38023e+06) (-0.82213 -0.828598 -9.37946e+06) (-1.48481 -1.4884 -9.37879e+06) (1.17503 1.17499 -9.37826e+06)
2450          (-1.58756 -1.58753 -9.38393e+06) (-1.58756 -1.58753 -9.38393e+06) (-1.52968 -1.5296 -9.38363e+06) (-1.21034 -1.21021 -9.38316e+06) (-0.807213 -0.808117 -9.38256e+06) (-0.542062 -0.543536 -9.38184e+06) (-0.40496 -0.406291 -9.38105e+06) (-0.466897 -0.470276 -9.38023e+06) (-0.82213 -0.828598 -9.37946e+06) (-1.48481 -1.4884 -9.37879e+06) (1.17503 1.17499 -9.37826e+06)
2500          (-1.58756 -1.58753 -9.38393e+06) (-1.58756 -1.58753 -9.38393e+06) (-1.52968 -1.5296 -9.38363e+06) (-1.21034 -1.21021 -9.38316e+06) (-0.807213 -0.808117 -9.38256e+06) (-0.542062 -0.543536 -9.38184e+06) (-0.40496 -0.406291 -9.38105e+06) (-0.466897 -0.470276 -9.38023e+06) (-0.82213 -0.828598 -9.37946e+06) (-1.48481 -1.4884 -9.37879e+06) (1.17503 1.17499 -9.37826e+06)
2550          (-1.58756 -1.58753 -9.38393e+06) (-1.58756 -1.58753 -9.38393e+06) (-1.52968 -1.5296 -9.38363e+06) (-1.21034 -1.21021 -9.38316e+06) (-0.807213 -0.808117 -9.38256e+06) (-0.542062 -0.543536 -9.38184e+06) (-0.40496 -0.406291 -9.38105e+06) (-0.466897 -0.470276 -9.38023e+06) (-0.82213 -0.828598 -9.37946e+06) (-1.48481 -1.4884 -9.37879e+06) (1.17503 1.17499 -9.37826e+06)
2600          (-1.58756 -1.58753 -9.38393e+06) (-1.58756 -1.58753 -9.38393e+06) (-1.52968 -1.5296 -9.38363e+06) (-1.21034 -1.21021 -9.38316e+06) (-0.807213 -0.808117 -9.38256e+06) (-0.542062 -0.543536 -9.38184e+06) (-0.40496 -0.406291 -9.38105e+06) (-0.466897 -0.470276 -9.38023e+06) (-0.82213 -0.828598 -9.37946e+06) (-1.48481 -1.4884 -9.37879e+06) (1.17503 1.17499 -9.37826e+06)
2650          (-1.58756 -1.58753 -9.38393e+06) (-1.58756 -1.58753 -9.38393e+06) (-1.52968 -1.5296 -9.38363e+06) (-1.21034 -1.21021 -9.38316e+06) (-0.807213 -0.808117 -9.38256e+06) (-0.542062 -0.543536 -9.38184e+06) (-0.40496 -0.406291 -9.38105e+06) (-0.466897 -0.470276 -9.38023e+06) (-0.82213 -0.828598 -9.37946e+06) (-1.48481 -1.4884 -9.37879e+06) (1.17503 1.17499 -9.37826e+06)
2700          (-1.58756 -1.58753 -9.38393e+06) (-1.58756 -1.58753 -9.38393e+06) (-1.52968 -1.5296 -9.38363e+06) (-1.21034 -1.21021 -9.38316e+06) (-0.807213 -0.808117 -9.38256e+06) (-0.542062 -0.543536 -9.38184e+06) (-0.40496 -0.406291 -9.38105e+06) (-0.466897 -0.470276 -9.38023e+06) (-0.82213 -0.828598 -9.37946e+06) (-1.48481 -1.4884 -9.37879e+06) (1.17503 1.17499 -9.37826e+06)
2750          (-1.58756 -1.58753 -9.38393e+06) (-1.58756 -1.58753 -9.38393e+06) (-1.52968 -1.5296 -9.38363e+06) (-1.21034 -1.21021 -9.38316e+06) (-0.807213 -0.808117 -9.38256e+06) (-0.542062 -0.543536 -9.38184e+06) (-0.40496 -0.406291 -9.38105e+06) (-0.466897 -0.470276 -9.38023e+06) (-0.82213 -0.828598 -9.37946e+06) (-1.48481 -1.4884 -9.37879e+06) (1.17503 1.17499 -9.37826e+06)
2800          (-1.58756 -1.58753 -9.38393e+06) (-1.58756 -1.58753 -9.38393e+06) (-1.52968 -1.5296 -9.38363e+06) (-1.21034 -1.21021 -9.38316e+06) (-0.807213 -0.808117 -9.38256e+06) (-0.542062 -0.543536 -9.38184e+06) (-0.40496 -0.406291 -9.38105e+06) (-0.466897 -0.470276 -9.38023e+06) (-0.82213 -0.828598 -9.37946e+06) (-1.48481 -1.4884 -9.37879e+06) (1.17503 1.17499 -9.37826e+06)
2850          (-1.58756 -1.58753 -9.38393e+06) (-1.58756 -1.58753 -9.38393e+06) (-1.52968 -1.5296 -9.38363e+06) (-1.21034 -1.21021 -9.38316e+06) (-0.807213 -0.808117 -9.38256e+06) (-0.542062 -0.543536 -9.38184e+06) (-0.40496 -0.406291 -9.38105e+06) (-0.466897 -0.470276 -9.38023e+06) (-0.82213 -0.828598 -9.37946e+06) (-1.48481 -1.4884 -9.37879e+06) (1.17503 1.17499 -9.37826e+06)
2900          (-1.58756 -1.58753 -9.38393e+06) (-1.58756 -1.58753 -9.38393e+06) (-1.52968 -1.5296 -9.38363e+06) (-1.21034 -1.21021 -9.38316e+06) (-0.807213 -0.808117 -9.38256e+06) (-0.542062 -0.543536 -9.38184e+06) (-0.40496 -0.406291 -9.38105e+06) (-0.466897 -0.470276 -9.38023e+06) (-0.82213 -0.828598 -9.37946e+06) (-1.48481 -1.4884 -9.37879e+06) (1.17503 1.17499 -9.37826e+06)
2950          (-1.58756 -1.58753 -9.38393e+06) (-1.58756 -1.58753 -9.38393e+06) (-1.52968 -1.5296 -9.38363e+06) (-1.21034 -1.21021 -9.38316e+06) (-0.807213 -0.808117 -9.38256e+06) (-0.542062 -0.543536 -9.38184e+06) (-0.40496 -0.406291 -9.38105e+06) (-0.466897 -0.470276 -9.38023e+06) (-0.82213 -0.828598 -9.37946e+06) (-1.48481 -1.4884 -9.37879e+06) (1.17503 1.17499 -9.37826e+06)
3000          (-1.58756 -1.58753 -9.38393e+06) (-1.58756 -1.58753 -9.38393e+06) (-1.52968 -1.5296 -9.38363e+06) (-1.21034 -1.21021 -9.38316e+06) (-0.807213 -0.808117 -9.38256e+06) (-0.542062 -0.543536 -9.38184e+06) (-0.40496 -0.406291 -9.38105e+06) (-0.466897 -0.470276 -9.38023e+06) (-0.82213 -0.828598 -9.37946e+06) (-1.48481 -1.4884 -9.37879e+06) (1.17503 1.17499 -9.37826e+06)
3050          (-1.58756 -1.58753 -9.38393e+06) (-1.58756 -1.58753 -9.38393e+06) (-1.52968 -1.5296 -9.38363e+06) (-1.21034 -1.21021 -9.38316e+06) (-0.807213 -0.808117 -9.38256e+06) (-0.542062 -0.543536 -9.38184e+06) (-0.40496 -0.406291 -9.38105e+06) (-0.466897 -0.470276 -9.38023e+06) (-0.82213 -0.828598 -9.37946e+06) (-1.48481 -1.4884 -9.37879e+06) (1.17503 1.17499 -9.37826e+06)
3100          (-1.58756 -1.58753 -9.38393e+06) (-1.58756 -1.58753 -9.38393e+06) (-1.52968 -1.5296 -9.38363e+06) (-1.21034 -1.21021 -9.38316e+06) (-0.807213 -0.808117 -9.38256e+06) (-0.542062 -0.543536 -9.38184e+06) (-0.40496 -0.406291 -9.38105e+06) (-0.466897 -0.470276 -9.38023e+06) (-0.82213 -0.828598 -9.37946e+06) (-1.48481 -1.4884 -9.37879e+06) (1.17503 1.17499 -9.37826e+06)
3150          (-1.58756 -1.58753 -9.38393e+06) (-1.58756 -1.58753 -9.38393e+06) (-1.52968 -1.5296 -9.38363e+06) (-1.21034 -1.21021 -9.38316e+06) (-0.807213 -0.808117 -9.38256e+06) (-0.542062 -0.543536 -9.38184e+06) (-0.40496 -0.406291 -9.38105e+06) (-0.466897 -0.470276 -9.38023e+06) (-0.82213 -0.828598 -9.37946e+06) (-1.48481 -1.4884 -9.37879e+06) (1.17503 1.17499 -9.37826e+06)
3200          (-1.58756 -1.58753 -9.38393e+06) (-1.58756 -1.58753 -9.38393e+06) (-1.52968 -1.5296 -9.38363e+06) (-1.21034 -1.21021 -9.38316e+06) (-0.807213 -0.808117 -9.38256e+06) (-0.542062 -0.543536 -9.38184e+06) (-0.40496 -0.406291 -9.38105e+06) (-0.466897 -0.470276 -9.38023e+06) (-0.82213 -0.828598 -9.37946e+06) (-1.48481 -1.4884 -9.37879e+06) (1.17503 1.17499 -9.37826e+06)
3250          (-1.58756 -1.58753 -9.38393e+06) (-1.58756 -1.58753 -9.38393e+06) (-1.52968 -1.5296 -9.38363e+06) (-1.21034 -1.21021 -9.38316e+06) (-0.807213 -0.808117 -9.38256e+06) (-0.542062 -0.543536 -9.38184e+06) (-0.40496 -0.406291 -9.38105e+06) (-0.466897 -0.470276 -9.38023e+06) (-0.82213 -0.828598 -9.37946e+06) (-1.48481 -1.4884 -9.37879e+06) (1.17503 1.17499 -9.37826e+06)
3300          (-1.58756 -1.58753 -9.38393e+06) (-1.58756 -1.58753 -9.38393e+06) (-1.52968 -1.5296 -9.38363e+06) (-1.21034 -1.21021 -9.38316e+06) (-0.807213 -0.808117 -9.38256e+06) (-0.542062 -0.543536 -9.38184e+06) (-0.40496 -0.406291 -9.38105e+06) (-0.466897 -0.470276 -9.38023e+06) (-0.82213 -0.828598 -9.37946e+06) (-1.48481 -1.4884 -9.37879e+06) (1.17503 1.17499 -9.37826e+06)
3350          (-1.58756 -1.58753 -9.38393e+06) (-1.58756 -1.58753 -9.38393e+06) (-1.52968 -1.5296 -9.38363e+06) (-1.21034 -1.21021 -9.38316e+06) (-0.807213 -0.808117 -9.38256e+06) (-0.542062 -0.543536 -9.38184e+06) (-0.40496 -0.406291 -9.38105e+06) (-0.466897 -0.470276 -9.38023e+06) (-0.82213 -0.828598 -9.37946e+06) (-1.48481 -1.4884 -9.37879e+06) (1.17503 1.17499 -9.37826e+06)
3400          (-1.58756 -1.58753 -9.38393e+06) (-1.58756 -1.58753 -9.38393e+06) (-1.52968 -1.5296 -9.38363e+06) (-1.21034 -1.21021 -9.38316e+06) (-0.807213 -0.808117 -9.38256e+06) (-0.542062 -0.543536 -9.38184e+06) (-0.40496 -0.406291 -9.38105e+06) (-0.466897 -0.470276 -9.38023e+06) (-0.82213 -0.828598 -9.37946e+06) (-1.48481 -1.4884 -9.37879e+06) (1.17503 1.17499 -9.37826e+06)
3450          (-1.58756 -1.58753 -9.38393e+06) (-1.58756 -1.58753 -9.38393e+06) (-1.52968 -1.5296 -9.38363e+06) (-1.21034 -1.21021 -9.38316e+06) (-0.807213 -0.808117 -9.38256e+06) (-0.542062 -0.543536 -9.38184e+06) (-0.40496 -0.406291 -9.38105e+06) (-0.466897 -0.470276 -9.38023e+06) (-0.82213 -0.828598 -9.37946e+06) (-1.48481 -1.4884 -9.37879e+06) (1.17503 1.17499 -9.37826e+06)
3500          (-1.58756 -1.58753 -9.38393e+06) (-1.58756 -1.58753 -9.38393e+06) (-1.52968 -1.5296 -9.38363e+06) (-1.21034 -1.21021 -9.38316e+06) (-0.807213 -0.808117 -9.38256e+06) (-0.542062 -0.543536 -9.38184e+06) (-0.40496 -0.406291 -9.38105e+06) (-0.466897 -0.470276 -9.38023e+06) (-0.82213 -0.828598 -9.37946e+06) (-1.48481 -1.4884 -9.37879e+06) (1.17503 1.17499 -9.37826e+06)
3550          (-1.58756 -1.58753 -9.38393e+06) (-1.58756 -1.58753 -9.38393e+06) (-1.52968 -1.5296 -9.38363e+06) (-1.21034 -1.21021 -9.38316e+06) (-0.807213 -0.808117 -9.38256e+06) (-0.542062 -0.543536 -9.38184e+06) (-0.40496 -0.406291 -9.38105e+06) (-0.466897 -0.470276 -9.38023e+06) (-0.82213 -0.828598 -9.37946e+06) (-1.48481 -1.4884 -9.37879e+06) (1.17503 1.17499 -9.37826e+06)
3600          (-1.58756 -1.58753 -9.38393e+06) (-1.58756 -1.58753 -9.38393e+06) (-1.52968 -1.5296 -9.38363e+06) (-1.21034 -1.21021 -9.38316e+06) (-0.807213 -0.808117 -9.38256e+06) (-0.542062 -0.543536 -9.38184e+06) (-0.40496 -0.406291 -9.38105e+06) (-0.466897 -0.470276 -9.38023e+06) (-0.82213 -0.828598 -9.37946e+06) (-1.48481 -1.4884 -9.37879e+06) (1.17503 1.17499 -9.37826e+06)
3650          (-1.58756 -1.58753 -9.38393e+06) (-1.58756 -1.58753 -9.38393e+06) (-1.52968 -1.5296 -9.38363e+06) (-1.21034 -1.21021 -9.38316e+06) (-0.807213 -0.808117 -9.38256e+06) (-0.542062 -0.543536 -9.38184e+06) (-0.40496 -0.406291 -9.38105e+06) (-0.466897 -0.470276 -9.38023e+06) (-0.82213 -0.828598 -9.37946e+06) (-1.48481 -1.4884 -9.37879e+06) (1.17503 1.17499 -9.37826e+06)
3700          (-1.58756 -1.58753 -9.38393e+06) (-1.58756 -1.58753 -9.38393e+06) (-1.52968 -1.5296 -9.38363e+06) (-1.21034 -1.21021 -9.38316e+06) (-0.807213 -0.808117 -9.38256e+06) (-0.542062 -0.543536 -9.38184e+06) (-0.40496 -0.406291 -9.38105e+06) (-0.466897 -0.470276 -9.38023e+06) (-0.82213 -0.828598 -9.37946e+06) (-1.48481 -1.4884 -9.37879e+06) (1.17503 1.17499 -9.37826e+06)
3750          (-1.58756 -1.58753 -9.38393e+06) (-1.58756 -1.58753 -9.38393e+06) (-1.52968 -1.5296 -9.38363e+06) (-1.21034 -1.21021 -9.38316e+06) (-0.807213 -0.808117 -9.38256e+06) (-0.542062 -0.543536 -9.38184e+06) (-0.40496 -0.406291 -9.38105e+06) (-0.466897 -0.470276 -9.38023e+06) (-0.82213 -0.828598 -9.37946e+06) (-1.48481 -1.4884 -9.37879e+06) (1.17503 1.17499 -9.37826e+06)
3800          (-1.58756 -1.58753 -9.38393e+06) (-1.58756 -1.58753 -9.38393e+06) (-1.52968 -1.5296 -9.38363e+06) (-1.21034 -1.21021 -9.38316e+06) (-0.807213 -0.808117 -9.38256e+06) (-0.542062 -0.543536 -9.38184e+06) (-0.40496 -0.406291 -9.38105e+06) (-0.466897 -0.470276 -9.38023e+06) (-0.82213 -0.828598 -9.37946e+06) (-1.48481 -1.4884 -9.37879e+06) (1.17503 1.17499 -9.37826e+06)
3850          (-1.58756 -1.58753 -9.38393e+06) (-1.58756 -1.58753 -9.38393e+06) (-1.52968 -1.5296 -9.38363e+06) (-1.21034 -1.21021 -9.38316e+06) (-0.807213 -0.808117 -9.38256e+06) (-0.542062 -0.543536 -9.38184e+06) (-0.40496 -0.406291 -9.38105e+06) (-0.466897 -0.470276 -9.38023e+06) (-0.82213 -0.828598 -9.37946e+06) (-1.48481 -1.4884 -9.37879e+06) (1.17503 1.17499 -9.37826e+06)