# Probe 0 (0.0015 0.0015 0)
# Probe 1 (0.0015 0.0015 0.002)
# Probe 2 (0.0015 0.0015 0.004)
# Probe 3 (0.0015 0.0015 0.006)
# Probe 4 (0.0015 0.0015 0.008)
# Probe 5 (0.0015 0.0015 0.01)
# Probe 6 (0.0015 0.0015 0.012)
# Probe 7 (0.0015 0.0015 0.014)
# Probe 8 (0.0015 0.0015 0.016)
# Probe 9 (0.0015 0.0015 0.018)
# Probe 10 (0.0015 0.0015 0.02)
# Time        0             1             2             3             4             5             6             7             8             9             10           
50            (2.40021e-12 1.18144e-11 -7.3799e-12) (2.40021e-12 1.18144e-11 -7.3799e-12) (1.29501e-11 -1.2162e-11 -4.53917e-11) (1.3104e-11 1.2918e-11 -1.06815e-10) (1.06621e-11 1.06584e-11 -1.2682e-10) (1.25155e-11 -7.57084e-14 -1.42818e-10) (1.13276e-12 -9.50018e-12 -1.59171e-10) (7.60158e-13 1.28592e-11 -1.99677e-10) (1.26818e-11 -1.19985e-11 -2.2757e-10) (2.07932e-13 5.95111e-13 -2.62164e-10) (-2.36932e-11 2.38639e-11 -3.29554e-10)
100           (-2.4214e-12 -1.0645e-11 -2.20451e-11) (-2.4214e-12 -1.0645e-11 -2.20451e-11) (2.26609e-11 -4.04942e-14 -7.14464e-11) (-1.15216e-11 1.15508e-11 -9.98647e-11) (-1.18094e-11 -1.34409e-12 -1.08978e-10) (1.18245e-11 3.81448e-14 -1.38114e-10) (1.07117e-11 2.1122e-12 -1.74436e-10) (1.17733e-11 -1.31268e-11 -1.93818e-10) (-1.06887e-11 1.2672e-12 -1.99511e-10) (9.3874e-14 1.30278e-11 -2.32541e-10) (1.28066e-11 -9.89673e-13 -2.38417e-10)
150           (1.30741e-11 2.48658e-11 -7.66939e-12) (1.30741e-11 2.48658e-11 -7.66939e-12) (-1.31564e-11 1.05018e-11 -1.71695e-11) (1.30581e-11 -1.28695e-11 -5.14013e-11) (-1.24493e-11 -9.69196e-13 -6.32411e-11) (2.36334e-12 1.18433e-11 -9.34321e-11) (-1.20508e-11 1.03215e-12 -1.32653e-10) (1.2836e-11 -1.20105e-11 -1.45352e-10) (-1.19133e-11 -8.63389e-14 -1.64361e-10) (-6.77256e-13 -2.47656e-11 -1.87345e-10) (1.22635e-11 -1.24099e-12 -2.01931e-10)
200           (2.26369e-11 -1.14097e-12 3.94602e-12) (2.26369e-11 -1.14097e-12 3.94602e-12) (8.29657e-13 -1.20844e-11 -2.66701e-11) (1.33259e-11 -2.50397e-11 -6.4503e-11) (1.30827e-11 1.07574e-11 -8.79535e-11) (-1.21011e-11 -1.08201e-11 -1.15958e-10) (1.28346e-11 1.22395e-11 -1.30784e-10) (1.17624e-11 -1.44431e-12 -1.33262e-10) (1.08765e-11 1.16494e-11 -1.33981e-10) (-1.17915e-11 -1.02378e-11 -1.41889e-10) (9.62691e-16 -1.1896e-11 -1.88212e-10)
250           (-1.32116e-11 1.30036e-11 -2.36618e-12) (-1.32116e-11 1.30036e-11 -2.36618e-12) (-1.32576e-11 -2.24067e-13 -5.87244e-11) (-1.14959e-11 -1.15394e-11 -1.08365e-10) (9.54785e-12 1.4414e-11 -1.49241e-10) (-2.35261e-13 1.51634e-13 -2.06059e-10) (1.092e-11 -1.08795e-11 -2.60911e-10) (1.40778e-11 2.86634e-13 -2.87781e-10) (1.0926e-13 -4.22576e-13 -3.40381e-10) (-1.16768e-11 -1.18117e-11 -4.13858e-10) (-1.31562e-11 1.66255e-13 -4.34278e-10)
300           (1.05405e-11 -1.19937e-11 -2.92827e-11) (1.05405e-11 -1.19937e-11 -2.92827e-11) (1.58573e-13 -2.33719e-11 -5.97248e-11) (1.32655e-12 6.51825e-14 -8.2695e-11) (-1.32671e-11 -1.29998e-11 -1.28373e-10) (-1.34076e-12 -9.24161e-15 -1.62575e-10) (1.28922e-12 1.04311e-11 -2.19991e-10) (-1.091e-11 -1.0203e-12 -2.52503e-10) (2.37701e-11 8.12476e-13 -2.35705e-10) (-1.15772e-12 -1.21435e-11 -2.69976e-10) (2.35891e-12 9.18667e-13 -2.78846e-10)
350           (1.05534e-11 9.57138e-13 -2.03326e-11) (1.05534e-11 9.57138e-13 -2.03326e-11) (-1.32697e-11 1.18803e-11 -2.1307e-11) (-1.26665e-13 2.15078e-12 -3.53867e-11) (-1.2111e-11 -3.72941e-15 -8.26176e-11) (-1.40419e-14 8.24703e-12 -7.76552e-11) (9.37546e-13 1.15479e-11 -1.17295e-10) (-2.54449e-11 -1.21195e-12 -1.55322e-10) (-2.36315e-11 -1.3854e-13 -1.82071e-10) (2.52222e-11 1.23295e-11 -2.22225e-10) (-1.31131e-11 -1.04886e-11 -2.02194e-10)
400           (-1.28703e-11 -1.1894e-11 -1.33284e-11) (-1.28703e-11 -1.1894e-11 -1.33284e-11) (1.19543e-11 1.31323e-11 -5.872e-11) (2.44817e-13 -1.19771e-11 -8.57722e-11) (1.41203e-11 -8.0993e-12 -9.32154e-11) (-2.49547e-11 -1.11319e-11 -1.27821e-10) (-3.54678e-13 -1.09835e-11 -1.57903e-10) (-1.19392e-11 -1.2641e-12 -1.86e-10) (-1.16864e-12 -1.11521e-11 -2.11233e-10) (-1.05063e-11 1.21676e-11 -2.45596e-10) (-1.21649e-12 1.10407e-11 -2.39454e-10)
450           (-2.32416e-12 -1.07896e-11 -2.69537e-12) (-2.32416e-12 -1.07896e-11 -2.69537e-12) (-1.1366e-12 -1.18212e-12 -2.68612e-12) (-1.20082e-11 -1.17725e-11 -3.22648e-11) (9.61096e-12 -9.07525e-13 -5.26655e-11) (1.26568e-12 3.57395e-14 -1.03946e-10) (1.04958e-11 -1.11105e-13 -1.33657e-10) (2.5008e-11 -1.29291e-11 -1.62033e-10) (-2.16052e-11 2.24482e-11 -1.85456e-10) (2.53813e-11 -1.05212e-12 -1.93333e-10) (1.18347e-11 2.38595e-11 -1.9918e-10)
500           (-1.45879e-12 -1.28107e-11 -3.70638e-11) (-1.45879e-12 -1.28107e-11 -3.70638e-11) (-1.30109e-11 1.0595e-11 -5.85906e-11) (1.20614e-11 1.04754e-11 -5.25379e-11) (-1.17906e-11 1.31581e-11 -5.75504e-11) (1.2885e-11 9.90828e-12 -6.17072e-11) (9.69166e-12 -1.33216e-11 -7.95435e-11) (1.2093e-11 1.15733e-11 -1.205e-10) (-1.29361e-11 -1.07096e-13 -1.60361e-10) (1.49492e-12 -2.29796e-12 -1.9799e-10) (1.0469e-11 -1.29753e-11 -2.2031e-10)
550           (-1.17102e-11 -1.29326e-11 -1.67019e-11) (-1.17102e-11 -1.29326e-11 -1.67019e-11) (1.17238e-11 -1.56639e-12 -5.79988e-11) (1.09737e-12 2.34901e-11 -1.33519e-10) (8.44782e-12 1.0669e-11 -1.60669e-10) (-1.28762e-11 -9.76784e-12 -1.6607e-10) (-5.18722e-13 -2.49999e-11 -2.03796e-10) (9.9078e-13 9.361e-13 -2.02611e-10) (-2.48687e-11 1.18221e-11 -2.13285e-10) (1.33245e-11 1.56605e-12 -2.80337e-10) (-1.16643e-11 -1.53587e-13 -3.2539e-10)
600           (-2.33565e-13 1.19907e-11 -9.31423e-12) (-2.33565e-13 1.19907e-11 -9.31423e-12) (-2.2772e-12 -1.71646e-13 -3.07418e-11) (-2.56527e-11 -1.15959e-12 -4.48144e-11) (-2.01105e-12 2.61598e-11 -5.18274e-11) (1.15622e-11 9.53348e-12 -9.04145e-11) (1.38024e-11 -1.22376e-11 -1.04039e-10) (-1.37848e-12 -1.1644e-11 -9.11097e-11) (1.31874e-11 -7.29976e-14 -1.04164e-10) (1.10199e-11 1.65412e-12 -1.28813e-10) (-1.18378e-11 -2.4696e-11 -1.501e-10)
650           (-3.5165e-11 3.50114e-15 -1.75114e-11) (-3.5165e-11 3.50114e-15 -1.75114e-11) (1.17569e-11 -3.44969e-11 -6.21513e-11) (2.36074e-11 -2.23174e-11 -1.32332e-10) (1.03888e-11 -1.17404e-11 -1.83609e-10) (1.21723e-11 -1.54332e-13 -2.15465e-10) (1.04687e-11 1.39101e-11 -2.39535e-10) (-3.67087e-12 4.80521e-14 -2.31505e-10) (-2.25216e-13 1.49675e-11 -2.65806e-10) (-9.63171e-13 -2.21627e-11 -3.02635e-10) (1.1884e-11 1.18319e-11 -3.25173e-10)
700           (1.35678e-12 9.3103e-13 5.86937e-12) (1.35678e-12 9.3103e-13 5.86937e-12) (1.19793e-11 -1.13121e-12 -2.62369e-11) (1.16612e-11 -2.86573e-13 -5.00484e-11) (-1.02076e-12 2.60224e-11 -6.62884e-11) (3.66725e-11 -1.7079e-12 -1.12184e-10) (-1.21565e-11 2.18233e-12 -1.2646e-10) (1.29944e-11 -2.35451e-11 -1.37871e-10) (-2.20511e-12 -1.21368e-11 -1.41139e-10) (-1.14673e-11 1.83182e-13 -1.91385e-10) (2.27367e-11 -1.30285e-11 -2.71343e-10)
750           (-9.68473e-13 -2.49421e-13 -6.01638e-12) (-9.68473e-13 -2.49421e-13 -6.01638e-12) (1.0674e-11 -1.28713e-11 -1.41904e-11) (1.34254e-11 2.36641e-11 -3.71975e-11) (-2.23285e-11 1.27521e-11 -5.3889e-11) (-1.17087e-12 -1.40907e-11 -9.23883e-11) (1.29411e-12 -5.75011e-13 -1.28566e-10) (-3.72716e-11 -2.49633e-11 -1.52722e-10) (-8.90892e-13 -1.04335e-13 -1.56108e-10) (2.96893e-13 8.38518e-12 -1.75025e-10) (1.42376e-11 -1.04585e-11 -1.98847e-10)
800           (-1.46055e-11 -1.10421e-12 -7.41606e-12) (-1.46055e-11 -1.10421e-12 -7.41606e-12) (-2.45136e-13 1.31709e-12 -1.40215e-11) (2.44591e-12 1.31103e-11 -3.40322e-11) (-1.24418e-12 1.07326e-11 -8.98911e-11) (-1.29831e-11 -1.48676e-12 -1.46513e-10) (1.17892e-11 -1.17557e-11 -1.50477e-10) (-2.37991e-12 -1.37359e-12 -1.74375e-10) (1.08584e-11 -1.15176e-12 -2.18853e-10) (2.69678e-12 -1.08578e-11 -2.45757e-10) (-4.47122e-14 1.21814e-11 -2.38665e-10)
850           (-1.0642e-11 1.30837e-11 -1.29111e-11) (-1.0642e-11 1.30837e-11 -1.29111e-11) (-1.10943e-12 -1.42746e-11 -5.82384e-11) (1.07082e-11 1.16726e-11 -1.22139e-10) (-1.06421e-11 1.11619e-12 -1.47179e-10) (-1.17334e-11 8.94442e-13 -1.72685e-10) (-2.26342e-11 -1.07766e-12 -2.10253e-10) (-1.18451e-11 2.29621e-11 -2.58168e-10) (-1.19943e-11 9.812e-13 -2.84928e-10) (2.1896e-11 -2.22153e-11 -3.01203e-10) (1.17623e-11 -1.18292e-11 -3.26571e-10)
900           (-1.07475e-11 -1.27056e-11 -8.3333e-12) (-1.07475e-11 -1.27056e-11 -8.3333e-12) (2.45219e-12 -2.67461e-12 -1.24084e-11) (9.5421e-12 1.20064e-11 -4.96162e-12) (-1.16903e-12 6.92363e-13 -1.9017e-11) (1.04293e-11 8.60242e-12 -5.89815e-11) (-1.24105e-11 -1.32527e-11 -8.80261e-11) (1.20258e-11 1.18683e-11 -1.09607e-10) (-2.47964e-11 -1.22334e-11 -1.35068e-10) (-1.08991e-11 4.16475e-13 -1.75681e-10) (1.18733e-11 -1.30807e-11 -2.25643e-10)
950           (2.2178e-11 -2.2146e-11 -1.07435e-11) (2.2178e-11 -2.2146e-11 -1.07435e-11) (-1.05708e-11 2.27121e-11 -3.36682e-11) (1.29775e-11 -1.30222e-11 -4.76391e-11) (1.21714e-11 1.10903e-12 -7.06509e-11) (1.31046e-11 2.52813e-11 -9.30322e-11) (-1.19794e-11 -1.17589e-11 -1.25311e-10) (-1.21314e-11 -2.12193e-11 -1.3208e-10) (-1.2062e-12 -2.84117e-13 -1.32115e-10) (-1.2547e-11 -8.13482e-13 -1.71108e-10) (9.72384e-12 -1.32401e-11 -1.97268e-10)
1000          (-3.00506e-13 -2.49768e-11 -2.06896e-11) (-3.00506e-13 -2.49768e-11 -2.06896e-11) (1.04452e-11 -9.688e-13 -6.94369e-11) (-1.15374e-12 -2.85754e-13 -1.0044e-10) (2.36666e-12 2.3745e-11 -1.41571e-10) (6.12009e-14 -3.0133e-14 -2.11181e-10) (-1.44993e-11 -2.44948e-12 -2.17589e-10) (1.39595e-11 -1.17363e-11 -2.45056e-10) (-1.31876e-11 -2.49945e-11 -2.97469e-10) (-2.44313e-11 1.10855e-13 -3.34917e-10) (-2.41823e-11 1.38031e-12 -3.70169e-10)
1050          (2.34883e-11 -7.62751e-14 -1.92757e-11) (2.34883e-11 -7.62751e-14 -1.92757e-11) (-1.16668e-11 9.33737e-12 -1.0879e-11) (8.63865e-12 1.20146e-11 -3.43995e-11) (1.17544e-11 1.28947e-11 -8.55655e-11) (-8.67458e-15 1.26447e-12 -1.26013e-10) (-1.23103e-11 -1.21107e-11 -1.2774e-10) (-1.18686e-11 3.47103e-13 -1.26979e-10) (-1.15601e-11 2.01139e-12 -1.49148e-10) (1.20083e-11 1.22456e-11 -1.74218e-10) (3.57307e-11 1.17631e-11 -2.02079e-10)
1100          (-1.43966e-11 6.57329e-13 -1.3326e-11) (-1.43966e-11 6.57329e-13 -1.3326e-11) (-1.29635e-11 1.06079e-12 -3.34722e-11) (2.07151e-12 -8.40586e-14 -4.94347e-11) (-1.07472e-11 -2.24102e-11 -7.24598e-11) (-1.15176e-11 -1.28777e-11 -1.03426e-10) (6.9829e-13 -3.56126e-11 -1.48873e-10) (-1.54116e-13 1.05908e-12 -1.94838e-10) (-1.16501e-11 9.4083e-13 -2.4648e-10) (1.31082e-11 -1.14447e-11 -2.83705e-10) (-1.28808e-11 -1.06918e-11 -2.85755e-10)
1150          (-8.04249e-13 -1.3202e-11 4.84195e-12) (-8.04249e-13 -1.3202e-11 4.84195e-12) (-1.18223e-11 -1.07033e-14 2.33654e-12) (1.21155e-11 1.16024e-11 -3.4531e-11) (1.07514e-11 -1.33751e-12 -9.74599e-11) (-1.26608e-11 1.056e-11 -1.57366e-10) (1.15623e-11 -9.98215e-12 -1.98584e-10) (-1.55381e-12 -1.17028e-11 -2.24568e-10) (1.42057e-11 9.07824e-13 -2.39347e-10) (9.88613e-12 1.30778e-11 -3.19415e-10) (1.15679e-11 -2.40621e-11 -3.74713e-10)
1200          (2.49638e-11 -1.48098e-12 -2.51579e-11) (2.49638e-11 -1.48098e-12 -2.51579e-11) (5.92588e-13 1.2989e-11 -4.44081e-11) (7.2499e-13 -3.44535e-11 -4.53648e-11) (1.29068e-11 1.25165e-12 -3.03173e-11) (1.53692e-11 -3.54358e-11 -5.13889e-11) (2.47214e-11 -1.2265e-11 -9.26812e-11) (8.55438e-14 -1.16341e-11 -8.93167e-11) (-1.053e-11 1.0688e-12 -1.03014e-10) (1.23537e-11 -8.82048e-13 -1.49769e-10) (1.48199e-12 -1.08084e-11 -1.87134e-10)
1250          (1.37316e-12 6.97154e-13 -2.64425e-11) (1.37316e-12 6.97154e-13 -2.64425e-11) (1.15003e-12 -1.06108e-11 -6.2108e-11) (5.06439e-14 2.59542e-11 -9.75954e-11) (9.505e-12 -1.21667e-11 -1.18637e-10) (-2.34189e-12 -1.42297e-11 -1.5532e-10) (-1.12591e-12 1.13402e-11 -1.8718e-10) (4.74683e-11 1.27544e-11 -1.99134e-10) (1.08652e-12 -1.19634e-11 -2.23033e-10) (1.31949e-11 -1.04e-11 -2.47731e-10) (-1.07557e-11 2.30805e-13 -2.86759e-10)
1300          (1.30918e-11 1.08941e-11 -2.60067e-11) (1.30918e-11 1.08941e-11 -2.60067e-11) (-1.06136e-11 -2.50809e-11 -3.58001e-11) (-1.28615e-11 1.9851e-13 -3.99948e-11) (-3.53113e-11 1.05497e-11 -8.55088e-11) (-1.00549e-12 1.18616e-11 -1.24781e-10) (1.16226e-11 -1.19158e-11 -1.58452e-10) (2.04824e-11 2.34276e-13 -1.90444e-10) (-1.31655e-11 -1.1235e-11 -2.00101e-10) (-1.26198e-11 -1.27127e-11 -2.05466e-10) (-1.22097e-11 -1.15497e-11 -2.35529e-10)
1350          (-1.38095e-12 1.39743e-11 -1.91161e-11) (-1.38095e-12 1.39743e-11 -1.91161e-11) (-1.43916e-11 2.05108e-12 -7.02017e-11) (1.0544e-11 1.30263e-11 -1.18499e-10) (3.06254e-13 2.34041e-11 -1.51474e-10) (-1.28343e-11 -2.39611e-12 -1.81463e-10) (1.16268e-11 -2.61809e-13 -2.20071e-10) (-2.51311e-13 1.1087e-11 -2.27872e-10) (1.29037e-12 -2.6324e-11 -2.47222e-10) (2.28769e-11 -1.13014e-11 -2.27149e-10) (1.35471e-11 1.18477e-11 -2.18017e-10)
1400          (-1.07561e-11 -1.4561e-11 -1.09664e-11) (-1.07561e-11 -1.4561e-11 -1.09664e-11) (1.31773e-11 -1.07376e-11 -6.23146e-11) (-1.28278e-11 -1.2926e-11 -1.09581e-10) (1.34747e-11 1.34406e-11 -1.35851e-10) (9.61079e-13 -9.05922e-13 -1.7548e-10) (-2.73554e-14 1.14395e-11 -1.96496e-10) (-2.6322e-12 1.16738e-11 -2.53412e-10) (-8.92903e-14 -1.44303e-12 -2.8803e-10) (-2.44676e-11 1.23099e-11 -3.40154e-10) (-3.74583e-14 1.07933e-11 -4.10925e-10)
1450          (2.13494e-11 -1.25612e-12 -5.93578e-12) (2.13494e-11 -1.25612e-12 -5.93578e-12) (1.17575e-11 -1.29827e-11 -4.13277e-11) (1.2462e-12 -1.20172e-11 -8.02082e-11) (-3.57108e-11 1.06691e-11 -1.1003e-10) (2.28208e-11 -1.39615e-11 -1.56722e-10) (-2.51997e-13 2.57805e-11 -1.86588e-10) (-1.46236e-12 -2.36621e-11 -2.03607e-10) (2.4902e-11 -2.2205e-11 -2.33912e-10) (1.20745e-11 -1.27042e-11 -2.76275e-10) (1.54001e-11 1.30131e-11 -3.06556e-10)
1500          (-1.15771e-12 1.0793e-11 -1.21011e-11) (-1.15771e-12 1.0793e-11 -1.21011e-11) (-1.19295e-12 -2.4703e-11 -3.868e-11) (-2.38172e-11 1.07619e-11 -7.15911e-11) (-2.48944e-11 -2.26073e-11 -1.11266e-10) (2.39125e-11 -1.51581e-11 -1.54286e-10) (5.80046e-13 6.61543e-13 -1.75225e-10) (1.15998e-11 1.40314e-11 -2.13826e-10) (-1.2535e-13 -3.28709e-13 -2.53399e-10) (-1.0859e-11 -1.28498e-11 -2.87013e-10) (1.33527e-11 -1.20439e-11 -3.60291e-10)
1550          (1.03851e-12 -1.08167e-11 -1.29028e-11) (1.03851e-12 -1.08167e-11 -1.29028e-11) (-1.29596e-11 1.3621e-12 -5.60582e-11) (1.23132e-11 1.19818e-11 -7.62684e-11) (2.61236e-11 -9.65218e-12 -9.64493e-11) (1.08113e-11 -1.30012e-11 -1.34923e-10) (-1.28172e-11 -4.87381e-13 -1.5132e-10) (-3.70717e-11 1.41701e-11 -1.34966e-10) (-3.62363e-12 -2.61324e-11 -1.45146e-10) (-9.97445e-13 -8.81879e-13 -1.48983e-10) (1.57782e-13 1.12222e-12 -1.8022e-10)
1600          (2.25748e-13 -2.39375e-11 -2.41673e-11) (2.25748e-13 -2.39375e-11 -2.41673e-11) (-1.19882e-11 -1.06013e-13 -6.77187e-11) (-1.08128e-11 9.29732e-14 -7.97005e-11) (-1.31137e-11 1.0923e-11 -9.54307e-11) (1.20311e-11 1.20978e-11 -1.60232e-10) (6.51512e-13 5.69965e-13 -2.15565e-10) (-7.30386e-14 1.46121e-12 -2.52859e-10) (-1.18578e-12 -1.34608e-11 -2.97076e-10) (1.31978e-11 1.2093e-11 -3.62913e-10) (-1.05303e-11 -1.21832e-11 -4.18599e-10)
1650          (9.93066e-13 -3.18034e-13 -1.5089e-11) (9.93066e-13 -3.18034e-13 -1.5089e-11) (-8.45457e-13 -1.0844e-11 -2.79612e-11) (2.38991e-11 -1.44147e-13 -5.64961e-11) (1.41504e-11 -1.11302e-11 -9.56152e-11) (-9.5918e-12 -1.28595e-11 -1.30246e-10) (1.13881e-11 2.22259e-11 -1.63971e-10) (3.15272e-13 1.29057e-11 -2.07219e-10) (2.1735e-12 -1.34827e-11 -2.22532e-10) (1.1329e-11 1.22355e-11 -2.46901e-10) (-2.88471e-13 -1.17754e-11 -2.4962e-10)
1700          (1.26135e-11 -1.08656e-11 -2.4539e-11) (1.26135e-11 -1.08656e-11 -2.4539e-11) (-1.17388e-11 1.03021e-11 -7.89815e-11) (1.1721e-11 -1.18106e-11 -1.09512e-10) (-1.0626e-11 1.15444e-11 -1.85432e-10) (1.09379e-11 -1.0657e-12 -2.34197e-10) (3.41236e-11 -1.18351e-11 -2.7278e-10) (2.12667e-11 2.47915e-11 -3.06056e-10) (1.27961e-11 -1.092e-11 -3.31625e-10) (1.30911e-11 -2.10782e-11 -3.61875e-10) (2.18324e-13 -2.22625e-11 -3.82647e-10)
1750          (-1.33077e-11 1.3054e-11 -2.26675e-11) (-1.33077e-11 1.3054e-11 -2.26675e-11) (-1.40304e-12 1.29666e-11 -5.63729e-11) (-1.06882e-12 2.27323e-11 -5.44808e-11) (-2.40629e-11 -5.70446e-14 -4.37581e-11) (9.57633e-12 1.19154e-11 -3.29954e-11) (1.10444e-12 -1.32003e-11 -7.17093e-11) (1.00261e-11 -2.37193e-11 -1.28145e-10) (1.09454e-11 1.369e-11 -1.60522e-10) (-1.96439e-12 -2.35933e-11 -1.91069e-10) (-2.20494e-12 -2.29853e-11 -1.95028e-10)
1800          (6.2036e-14 2.16418e-13 -1.69695e-12) (6.2036e-14 2.16418e-13 -1.69695e-12) (2.37099e-11 1.19389e-11 -4.57125e-12) (-4.21794e-13 -1.08063e-11 -3.80323e-11) (1.07582e-12 1.23055e-11 -3.89648e-11) (-1.20315e-12 1.17952e-11 -2.83899e-11) (-1.22776e-11 1.13537e-11 -1.04623e-11) (-1.21779e-11 1.06857e-11 -6.00942e-12) (2.40656e-11 1.1495e-12 -2.54871e-11) (-8.41166e-12 3.77755e-13 -5.16461e-11) (-1.07892e-11 1.30762e-11 -8.63094e-11)
1850          (-1.51624e-12 7.67495e-13 -1.82357e-11) (-1.51624e-12 7.67495e-13 -1.82357e-11) (2.47479e-12 2.56414e-12 -3.77197e-11) (-1.83751e-14 2.28544e-12 -5.89323e-11) (1.21588e-12 1.19067e-11 -1.07798e-10) (-2.47524e-11 -1.18978e-11 -1.52226e-10) (3.44552e-11 1.15784e-11 -1.72757e-10) (-1.39217e-13 -1.19887e-11 -2.3633e-10) (-1.18793e-13 2.34117e-12 -2.82872e-10) (-1.19228e-11 -1.38313e-11 -3.09045e-10) (9.01404e-13 -1.21108e-11 -3.46433e-10)
1900          (-2.49122e-11 -1.09638e-12 -9.36148e-12) (-2.49122e-11 -1.09638e-12 -9.36148e-12) (2.49505e-11 2.26915e-11 -2.08264e-11) (1.17637e-11 2.36062e-11 -4.12795e-11) (-1.18575e-12 -2.37317e-11 -8.40693e-11) (1.33031e-11 -2.22209e-11 -1.14655e-10) (9.40285e-14 -1.20487e-11 -1.54008e-10) (-1.02249e-11 -1.18436e-11 -1.63031e-10) (-1.29312e-11 -1.54802e-12 -1.68234e-10) (-9.80848e-13 2.27211e-11 -2.23036e-10) (-1.74948e-13 -1.29263e-11 -2.47529e-10)
1950          (9.43415e-14 -1.20885e-11 -1.10864e-11) (9.43415e-14 -1.20885e-11 -1.10864e-11) (-1.39278e-12 -1.42615e-12 -1.91577e-11) (1.28233e-11 -1.16573e-11 -4.2295e-11) (1.15667e-12 2.19948e-12 -4.92024e-11) (1.19846e-11 1.20444e-11 -6.82712e-11) (1.01498e-11 -3.54502e-13 -1.06738e-10) (1.00299e-12 2.94453e-13 -9.75832e-11) (-1.23852e-12 2.23837e-11 -1.20557e-10) (2.37174e-11 1.33526e-11 -1.69264e-10) (2.45531e-11 -1.11163e-11 -1.76986e-10)
2000          (1.13218e-13 9.66894e-13 -6.61607e-12) (1.13218e-13 9.66894e-13 -6.61607e-12) (-1.41074e-11 -1.05514e-11 -2.71711e-11) (-1.07378e-11 -3.58279e-11 -8.05271e-11) (-1.30713e-11 -1.08283e-11 -1.1665e-10) (-1.10596e-11 -1.17181e-11 -1.46429e-10) (-3.82816e-13 8.61972e-13 -1.96904e-10) (9.39958e-12 -1.07517e-12 -2.27581e-10) (-9.37231e-12 -1.59925e-12 -1.96246e-10) (1.10619e-11 2.39825e-12 -2.14924e-10) (-1.30461e-11 1.08393e-11 -2.46473e-10)
2050          (1.18925e-11 -1.30437e-11 -5.30243e-12) (1.18925e-11 -1.30437e-11 -5.30243e-12) (-1.29617e-11 3.3196e-13 -5.83473e-12) (9.6515e-13 1.01874e-12 -3.5365e-12) (2.37253e-11 1.08348e-11 -1.80842e-11) (-1.18253e-11 -1.0176e-11 -5.70228e-11) (1.02461e-11 -3.41219e-13 -6.56012e-11) (1.05949e-11 2.11483e-11 -8.1018e-11) (-2.02781e-12 2.83465e-13 -1.34005e-10) (1.8749e-13 -7.18353e-13 -1.50442e-10) (9.70539e-12 -1.32031e-11 -1.6443e-10)
2100          (-2.28168e-12 1.16152e-11 -8.182e-12) (-2.28168e-12 1.16152e-11 -8.182e-12) (-1.31473e-11 1.065e-11 -1.93895e-11) (-1.09469e-11 1.76718e-13 -5.54321e-11) (-1.08332e-11 -9.20078e-12 -8.18035e-11) (1.11504e-13 1.15903e-11 -1.13046e-10) (-2.16362e-11 -1.3474e-11 -1.44023e-10) (1.24248e-11 -2.12203e-12 -1.34568e-10) (2.22252e-13 1.02603e-11 -1.43404e-10) (-6.06907e-13 1.32978e-11 -1.82831e-10) (1.72014e-13 -7.45159e-14 -1.89236e-10)
2150          (1.61028e-13 -1.4141e-11 -1.28167e-11) (1.61028e-13 -1.4141e-11 -1.28167e-11) (-1.26398e-11 -1.16799e-11 -3.32575e-11) (-1.22475e-11 -1.3027e-11 -7.09987e-11) (3.05846e-13 -1.09779e-11 -1.17931e-10) (-9.04428e-14 -2.33191e-11 -1.73163e-10) (-1.32944e-12 -9.70221e-12 -2.07419e-10) (2.44489e-11 -3.65529e-14 -2.63764e-10) (-1.21241e-11 6.46811e-13 -2.81015e-10) (-2.37118e-11 1.35858e-11 -3.01133e-10) (-1.09628e-11 1.19835e-11 -3.1712e-10)
2200          (2.71138e-12 2.37708e-11 -9.05194e-12) (2.71138e-12 2.37708e-11 -9.05194e-12) (-8.33822e-14 -1.2886e-11 -1.915e-11) (1.09601e-11 -1.0773e-13 -1.03982e-11) (-2.48879e-11 -2.44039e-11 -4.3941e-11) (3.59871e-13 2.32069e-13 -1.07005e-10) (-2.43181e-11 -9.20831e-13 -1.60139e-10) (-1.20089e-11 -2.1958e-12 -1.66977e-10) (-1.13593e-11 7.42932e-13 -1.88767e-10) (-5.90874e-13 1.22899e-11 -2.24758e-10) (-2.43063e-11 -1.17799e-11 -2.93119e-10)
2250          (-7.73996e-13 1.34647e-12 3.16329e-12) (-7.73996e-13 1.34647e-12 3.16329e-12) (3.54875e-11 -2.42162e-12 9.77897e-13) (-1.07589e-11 1.16713e-11 -1.9752e-11) (1.0509e-12 2.36433e-11 -3.01018e-11) (1.1655e-11 2.47815e-11 -7.15922e-11) (1.01751e-12 3.85309e-14 -9.99585e-11) (-1.53229e-12 -2.49027e-11 -8.81544e-11) (1.25554e-11 -1.34649e-11 -1.21502e-10) (1.29356e-12 1.21282e-11 -1.77842e-10) (-1.27883e-11 -1.31222e-11 -1.91576e-10)
2300          (-1.28863e-12 2.36244e-11 -1.00043e-11) (-1.28863e-12 2.36244e-11 -1.00043e-11) (2.64247e-13 1.09915e-11 -3.89393e-11) (1.46602e-12 1.30515e-12 -6.65428e-11) (-1.38996e-12 1.35924e-12 -7.20786e-11) (1.43953e-12 -1.30831e-11 -1.12299e-10) (-2.32276e-13 -2.28592e-11 -1.52952e-10) (1.18212e-11 1.22519e-11 -1.81246e-10) (-2.14752e-11 -1.97155e-13 -2.10165e-10) (-1.05956e-11 1.10267e-11 -2.25086e-10) (1.20147e-11 3.54934e-11 -2.46158e-10)
2350          (-1.14293e-11 1.18955e-11 -7.7708e-12) (-1.14293e-11 1.18955e-11 -7.7708e-12) (-1.17462e-11 1.28852e-12 -3.61222e-11) (-1.19085e-11 2.58004e-12 -5.42437e-11) (1.36292e-12 1.05453e-13 -6.72158e-11) (-8.72243e-13 -9.21548e-12 -9.67491e-11) (9.63924e-13 -1.93006e-13 -9.99205e-11) (-9.70549e-12 -9.63467e-12 -1.19687e-10) (3.5558e-11 -2.27856e-11 -1.39136e-10) (1.08208e-11 -6.65649e-14 -1.53028e-10) (2.3859e-11 1.0699e-11 -1.92225e-10)
2400          (-8.01592e-14 6.03784e-13 -1.39167e-12) (-8.01592e-14 6.03784e-13 -1.39167e-12) (-1.07712e-11 1.19675e-11 -1.6163e-11) (-1.50896e-12 1.09656e-12 -6.69826e-11) (2.05421e-13 3.51523e-12 -7.57649e-11) (2.44467e-14 -3.11858e-13 -1.23766e-10) (-1.10059e-11 -1.22142e-11 -1.44475e-10) (1.29399e-11 1.18729e-11 -1.49182e-10) (-1.03278e-12 1.19246e-11 -1.92349e-10) (-1.42637e-11 -1.29492e-11 -2.46623e-10) (-1.19828e-11 -1.21315e-11 -2.53322e-10)
2450          (-1.17374e-11 3.64675e-11 -1.21435e-11) (-1.17374e-11 3.64675e-11 -1.21435e-11) (-1.29658e-11 1.19718e-11 -3.90958e-11) (2.26761e-11 -1.52659e-11 -9.1258e-11) (-1.06386e-12 -1.18834e-11 -1.18178e-10) (-1.3055e-11 1.29291e-11 -1.5222e-10) (-1.41179e-11 -1.10788e-11 -1.88532e-10) (2.22355e-11 -2.40172e-13 -2.09904e-10) (1.08213e-11 1.12708e-11 -2.2546e-10) (-6.44782e-13 -1.18149e-11 -2.57039e-10) (-7.83808e-13 -9.91225e-14 -3.02465e-10)
2500          (-2.3741e-11 -1.26496e-11 -1.91795e-11) (-2.3741e-11 -1.26496e-11 -1.91795e-11) (-8.25475e-14 -2.39922e-11 -5.04335e-11) (-1.1849e-11 1.65682e-12 -5.95185e-11) (-1.33338e-12 1.06906e-11 -7.83701e-11) (1.20012e-11 1.22765e-12 -8.95848e-11) (1.15659e-11 2.36757e-12 -1.06438e-10) (1.18359e-11 -2.26343e-11 -1.31558e-10) (2.41505e-12 -1.0692e-11 -1.57145e-10) (-7.84251e-13 1.0382e-12 -1.6362e-10) (-4.74526e-13 2.39836e-12 -1.90851e-10)
2550          (-2.33435e-11 1.16474e-11 -2.36158e-12) (-2.33435e-11 1.16474e-11 -2.36158e-12) (1.34951e-11 -1.1866e-11 -3.64151e-11) (-1.14031e-12 -1.28168e-11 -7.35046e-11) (1.28761e-11 -1.11944e-11 -1.05429e-10) (-2.45172e-13 1.2028e-11 -1.53254e-10) (-4.27537e-13 -3.43006e-13 -2.15156e-10) (-2.2298e-13 -1.08634e-11 -2.42755e-10) (-1.29368e-11 -1.23157e-13 -2.5097e-10) (-2.45771e-11 1.34001e-12 -2.30608e-10) (2.52386e-11 -2.61015e-13 -2.5121e-10)
2600          (-2.36251e-12 1.29606e-11 4.91374e-12) (-2.36251e-12 1.29606e-11 4.91374e-12) (-1.67338e-13 -9.26363e-13 4.70974e-12) (-3.60234e-13 -2.35292e-11 -2.45061e-11) (-1.23568e-12 -1.18664e-11 -3.96723e-11) (1.31744e-11 8.68553e-12 -9.49487e-11) (-1.08918e-11 2.22445e-12 -1.20368e-10) (-2.31521e-11 -1.22223e-13 -1.62363e-10) (-2.46557e-11 1.26288e-11 -1.97565e-10) (-1.25734e-11 -1.18317e-11 -2.23806e-10) (2.41177e-12 -7.87541e-13 -2.27675e-10)
2650          (-1.31746e-11 -1.08995e-11 -3.01281e-13) (-1.31746e-11 -1.08995e-11 -3.01281e-13) (1.13065e-11 -1.03429e-11 -2.93666e-11) (1.06676e-11 1.15446e-11 -1.01137e-10) (1.18346e-11 1.18394e-11 -1.21672e-10) (-1.28628e-11 1.8801e-13 -1.20936e-10) (1.36153e-11 -1.20947e-11 -1.47839e-10) (-1.07602e-11 1.16695e-11 -1.81114e-10) (-1.09191e-11 -1.20631e-11 -1.64102e-10) (-1.16692e-11 -1.1714e-11 -1.87048e-10) (-1.15493e-12 -1.28384e-11 -2.10554e-10)
2700          (1.15448e-11 -1.19651e-11 -1.80954e-11) (1.15448e-11 -1.19651e-11 -1.80954e-11) (-7.66961e-14 -1.18913e-11 -3.18718e-11) (5.76848e-14 1.18962e-11 -5.50335e-11) (8.67191e-12 1.06731e-13 -7.09485e-11) (1.45572e-12 1.31875e-11 -1.24211e-10) (-1.29848e-11 1.07473e-12 -1.6818e-10) (-1.69284e-13 1.05196e-11 -1.97773e-10) (1.29993e-11 -1.61671e-12 -2.22367e-10) (-3.00221e-14 1.18292e-11 -2.32507e-10) (2.34924e-13 -1.20036e-11 -2.42476e-10)
2750          (1.16778e-11 1.04502e-11 -1.2195e-11) (1.16778e-11 1.04502e-11 -1.2195e-11) (2.18101e-12 -2.37551e-13 -4.91594e-11) (1.32436e-11 -1.08135e-11 -5.14426e-11) (1.0625e-11 -1.18565e-11 -6.98267e-11) (1.21298e-11 -6.85332e-14 -1.13142e-10) (1.15076e-12 -1.2346e-12 -1.66451e-10) (2.49265e-11 2.28227e-11 -2.11428e-10) (1.05423e-11 -1.41672e-11 -2.2298e-10) (1.57406e-11 -1.12918e-12 -2.58614e-10) (-2.00259e-13 -1.06149e-11 -2.98555e-10)
2800          (1.10179e-11 2.39799e-11 -1.40746e-11) (1.10179e-11 2.39799e-11 -1.40746e-11) (-1.33243e-11 9.31195e-13 -2.66622e-11) (-2.24727e-11 -1.19118e-11 -3.22571e-11) (-1.34511e-11 -1.86912e-13 -7.25021e-11) (-1.413e-11 9.47893e-12 -8.46608e-11) (-1.40622e-12 1.04056e-11 -8.84294e-11) (-1.16157e-12 -2.02926e-13 -9.60651e-11) (9.5631e-12 -1.35202e-13 -1.08943e-10) (1.32447e-11 1.50895e-13 -1.21912e-10) (1.23263e-12 -1.31361e-11 -1.18625e-10)
2850          (1.38458e-11 1.2117e-11 -1.43659e-11) (1.38458e-11 1.2117e-11 -1.43659e-11) (1.16282e-12 -9.70854e-13 -3.69982e-11) (-2.50547e-11 2.28611e-11 -3.68352e-11) (1.3086e-11 -9.74133e-13 -2.43005e-11) (-2.47582e-11 1.43248e-11 -6.40114e-11) (-2.53588e-11 -1.245e-12 -7.33919e-11) (-2.37677e-11 -1.28983e-11 -7.61951e-11) (9.65231e-13 2.21082e-11 -1.01975e-10) (1.31976e-12 -6.17819e-14 -1.65147e-10) (-1.20472e-11 2.37896e-11 -1.61685e-10)
2900          (1.28132e-11 1.25106e-11 -2.97829e-11) (1.28132e-11 1.25106e-11 -2.97829e-11) (1.114e-11 -1.13597e-11 -6.02956e-11) (2.73821e-13 -1.24862e-11 -7.42065e-11) (1.06393e-11 1.18571e-11 -7.84639e-11) (1.16683e-11 7.888e-13 -1.21772e-10) (-1.08524e-11 1.08806e-12 -1.5135e-10) (1.15658e-11 -1.42645e-11 -2.02782e-10) (2.76243e-13 8.7567e-13 -2.39484e-10) (9.94405e-12 7.53998e-13 -2.57388e-10) (1.1682e-11 2.38022e-12 -2.78282e-10)
2950          (-2.36956e-11 9.87067e-13 -7.79182e-12) (-2.36956e-11 9.87067e-13 -7.79182e-12) (-1.40148e-11 -3.75826e-14 -2.98647e-11) (1.27947e-11 -9.78726e-12 -3.59161e-11) (-1.27815e-11 -7.89432e-13 -8.03018e-11) (-1.1792e-11 2.35429e-11 -1.5961e-10) (-1.54092e-12 -2.82661e-12 -2.11097e-10) (2.45776e-11 1.09916e-12 -2.45274e-10) (-9.41401e-12 -2.4126e-11 -2.92167e-10) (1.20169e-11 6.19053e-14 -3.3481e-10) (2.10506e-13 -1.053e-11 -3.65273e-10)
3000          (-1.1011e-11 -1.29956e-11 -2.48818e-11) (-1.1011e-11 -1.29956e-11 -2.48818e-11) (1.54465e-11 4.08685e-14 -8.94972e-11) (2.36597e-11 -1.12462e-12 -1.342e-10) (1.3085e-11 1.18185e-11 -1.49849e-10) (9.38729e-13 1.09735e-11 -1.65763e-10) (1.27916e-11 1.05632e-11 -2.13063e-10) (-1.47594e-12 -9.73645e-12 -2.41483e-10) (-1.19526e-11 1.16738e-11 -2.4952e-10) (-1.33262e-12 5.02774e-13 -2.52013e-10) (-2.29703e-11 1.50002e-13 -2.52764e-10)
3050          (-2.02497e-14 2.4278e-12 1.68889e-11) (-2.02497e-14 2.4278e-12 1.68889e-11) (-1.23836e-12 3.60271e-12 2.3826e-11) (1.15116e-11 -2.2594e-11 -9.57737e-12) (2.36449e-11 -1.18638e-11 -3.8579e-11) (1.19146e-11 -3.59214e-13 -7.83409e-11) (-1.44217e-11 1.30758e-11 -1.24888e-10) (1.162e-11 -2.36213e-12 -1.45443e-10) (-2.50563e-12 -1.62273e-12 -1.83817e-10) (1.27521e-12 2.62391e-12 -2.29123e-10) (-1.29166e-13 1.30078e-11 -2.78775e-10)
3100          (-1.20149e-11 -2.30287e-12 -2.51107e-12) (-1.20149e-11 -2.30287e-12 -2.51107e-12) (5.57439e-14 2.47782e-12 -2.12239e-12) (1.08217e-11 2.38952e-11 -6.59667e-12) (-1.04843e-11 1.08217e-11 -3.09928e-11) (1.31737e-11 1.24953e-12 -6.54913e-11) (-1.33518e-11 -1.07788e-11 -8.84753e-11) (-2.39369e-11 1.26514e-11 -1.17849e-10) (1.42295e-11 -2.60053e-11 -1.54727e-10) (1.07284e-11 -2.5125e-11 -1.82069e-10) (-1.29574e-11 1.16851e-11 -1.89898e-10)
3150          (-1.21867e-11 -1.30352e-11 -6.29872e-12) (-1.21867e-11 -1.30352e-11 -6.29872e-12) (-2.48625e-11 1.05142e-11 -2.7598e-11) (2.13622e-11 6.87418e-14 -4.39937e-11) (1.29169e-11 1.31771e-11 -6.57601e-11) (1.40547e-12 1.05487e-11 -8.90616e-11) (-1.11083e-11 1.15941e-11 -1.05993e-10) (-1.56297e-11 -2.8199e-13 -1.52282e-10) (1.31302e-11 -1.59798e-12 -1.79716e-10) (-2.36251e-11 9.80292e-12 -2.02747e-10) (6.06314e-13 9.62419e-12 -2.37993e-10)
3200          (1.20156e-11 1.0619e-11 -1.92218e-11) (1.20156e-11 1.0619e-11 -1.92218e-11) (-2.40533e-11 2.35022e-11 -3.69703e-11) (3.55957e-11 -1.58825e-12 -2.85751e-11) (1.29543e-11 1.30593e-11 -6.46511e-11) (1.43937e-11 -9.64449e-12 -8.40257e-11) (-1.45369e-12 -2.23147e-11 -8.53311e-11) (-1.18756e-11 1.19385e-11 -1.11847e-10) (1.82542e-13 2.36051e-11 -1.30221e-10) (-1.30289e-11 1.46882e-12 -1.48979e-10) (2.06406e-12 9.35355e-13 -1.70038e-10)
3250          (-3.37334e-13 -2.25625e-12 -1.71454e-11) (-3.37334e-13 -2.25625e-12 -1.71454e-11) (3.03081e-14 2.58772e-13 -3.9791e-11) (9.06519e-13 1.04482e-11 -3.47459e-11) (-1.47542e-12 1.04711e-12 -4.54297e-11) (1.06011e-11 -1.13671e-12 -9.37107e-11) (-1.28377e-11 -2.20125e-13 -1.1906e-10) (-2.78979e-13 1.27362e-11 -1.60908e-10) (-1.27998e-11 -1.2184e-12 -1.91197e-10) (-1.1781e-11 9.98623e-13 -2.34887e-10) (1.05775e-11 -1.28455e-11 -2.41706e-10)