# Probe 0 (0.0015 0.0015 0)
# Probe 1 (0.0015 0.0015 0.002)
# Probe 2 (0.0015 0.0015 0.004)
# Probe 3 (0.0015 0.0015 0.006)
# Probe 4 (0.0015 0.0015 0.008)
# Probe 5 (0.0015 0.0015 0.01)
# Probe 6 (0.0015 0.0015 0.012)
# Probe 7 (0.0015 0.0015 0.014)
# Probe 8 (0.0015 0.0015 0.016)
# Probe 9 (0.0015 0.0015 0.018)
# Probe 10 (0.0015 0.0015 0.02)
# Time        0             1             2             3             4             5             6             7             8             9             10           
50            0.000449716   0.000449716   0.000449716   0.000449716   0.000449716   0.000449716   0.000449716   0.000449716   0.000449716   0.000449716   0.000449716  
100           0.000449716   0.000449716   0.000449716   0.000449716   0.000449716   0.000449716   0.000449716   0.000449716   0.000449716   0.000449716   0.000449716  
150           0.000449716   0.000449716   0.000449716   0.000449716   0.000449716   0.000449716   0.000449716   0.000449716   0.000449716   0.000449716   0.000449716  
200           0.000449716   0.000449716   0.000449716   0.000449716   0.000449716   0.000449716   0.000449716   0.000449716   0.000449716   0.000449716   0.000449716  
250           0.000449716   0.000449716   0.000449716   0.000449716   0.000449716   0.000449716   0.000449716   0.000449716   0.000449716   0.000449716   0.000449716  
300           0.000449716   0.000449716   0.000449716   0.000449716   0.000449716   0.000449716   0.000449716   0.000449716   0.000449716   0.000449716   0.000449716  
350           0.000449716   0.000449716   0.000449716   0.000449716   0.000449716   0.000449716   0.000449716   0.000449716   0.000449716   0.000449716   0.000449716  
400           0.000449716   0.000449716   0.000449716   0.000449716   0.000449716   0.000449716   0.000449716   0.000449716   0.000449716   0.000449716   0.000449716  
450           0.000449716   0.000449716   0.000449716   0.000449716   0.000449716   0.000449716   0.000449716   0.000449716   0.000449716   0.000449716   0.000449716  
500           0.000449716   0.000449716   0.000449716   0.000449716   0.000449716   0.000449716   0.000449716   0.000449716   0.000449716   0.000449716   0.000449716  
550           0.000449716   0.000449716   0.000449716   0.000449716   0.000449716   0.000449716   0.000449716   0.000449716   0.000449716   0.000449716   0.000449716  
600           0.000449716   0.000449716   0.000449716   0.000449716   0.000449716   0.000449716   0.000449716   0.000449716   0.000449716   0.000449716   0.000449716  
650           0.000449716   0.000449716   0.000449716   0.000449716   0.000449716   0.000449716   0.000449716   0.000449716   0.000449716   0.000449716   0.000449716  
700           0.000449716   0.000449716   0.000449716   0.000449716   0.000449716   0.000449716   0.000449716   0.000449716   0.000449716   0.000449716   0.000449716  
750           0.000449716   0.000449716   0.000449716   0.000449716   0.000449716   0.000449716   0.000449716   0.000449716   0.000449716   0.000449716   0.000449716  
800           0.000449716   0.000449716   0.000449716   0.000449716   0.000449716   0.000449716   0.000449716   0.000449716   0.000449716   0.000449716   0.000449716  
850           0.000449716   0.000449716   0.000449716   0.000449716   0.000449716   0.000449716   0.000449716   0.000449716   0.000449716   0.000449716   0.000449716  
900           0.000449716   0.000449716   0.000449716   0.000449716   0.000449716   0.000449716   0.000449716   0.000449716   0.000449716   0.000449716   0.000449716  
950           0.000449716   0.000449716   0.000449716   0.000449716   0.000449716   0.000449716   0.000449716   0.000449716   0.000449716   0.000449716   0.000449716  
1000          0.000449716   0.000449716   0.000449716   0.000449716   0.000449716   0.000449716   0.000449716   0.000449716   0.000449716   0.000449716   0.000449716  
1050          0.000449716   0.000449716   0.000449716   0.000449716   0.000449716   0.000449716   0.000449716   0.000449716   0.000449716   0.000449716   0.000449716  
1100          0.000449716   0.000449716   0.000449716   0.000449716   0.000449716   0.000449716   0.000449716   0.000449716   0.000449716   0.000449716   0.000449716  
1150          0.000449716   0.000449716   0.000449716   0.000449716   0.000449716   0.000449716   0.000449716   0.000449716   0.000449716   0.000449716   0.000449716  
1200          0.000449716   0.000449716   0.000449716   0.000449716   0.000449716   0.000449716   0.000449716   0.000449716   0.000449716   0.000449716   0.000449716  
1250          0.000449716   0.000449716   0.000449716   0.000449716   0.000449716   0.000449716   0.000449716   0.000449716   0.000449716   0.000449716   0.000449716  
1300          0.000449716   0.000449716   0.000449716   0.000449716   0.000449716   0.000449716   0.000449716   0.000449716   0.000449716   0.000449716   0.000449716  
1350          0.000449716   0.000449716   0.000449716   0.000449716   0.000449716   0.000449716   0.000449716   0.000449716   0.000449716   0.000449716   0.000449716  
1400          0.000449716   0.000449716   0.000449716   0.000449716   0.000449716   0.000449716   0.000449716   0.000449716   0.000449716   0.000449716   0.000449716  
1450          0.000449716   0.000449716   0.000449716   0.000449716   0.000449716   0.000449716   0.000449716   0.000449716   0.000449716   0.000449716   0.000449716  
1500          0.000449716   0.000449716   0.000449716   0.000449716   0.000449716   0.000449716   0.000449716   0.000449716   0.000449716   0.000449716   0.000449716  
1550          0.000449716   0.000449716   0.000449716   0.000449716   0.000449716   0.000449716   0.000449716   0.000449716   0.000449716   0.000449716   0.000449716  
1600          0.000449716   0.000449716   0.000449716   0.000449716   0.000449716   0.000449716   0.000449716   0.000449716   0.000449716   0.000449716   0.000449716  
1650          0.000449716   0.000449716   0.000449716   0.000449716   0.000449716   0.000449716   0.000449716   0.000449716   0.000449716   0.000449716   0.000449716  
1700          0.000449716   0.000449716   0.000449716   0.000449716   0.000449716   0.000449716   0.000449716   0.000449716   0.000449716   0.000449716   0.000449716  
1750          0.000449716   0.000449716   0.000449716   0.000449716   0.000449716   0.000449716   0.000449716   0.000449716   0.000449716   0.000449716   0.000449716  
1800          0.000449716   0.000449716   0.000449716   0.000449716   0.000449716   0.000449716   0.000449716   0.000449716   0.000449716   0.000449716   0.000449716  
1850          0.000449716   0.000449716   0.000449716   0.000449716   0.000449716   0.000449716   0.000449716   0.000449716   0.000449716   0.000449716   0.000449716  
1900          0.000449716   0.000449716   0.000449716   0.000449716   0.000449716   0.000449716   0.000449716   0.000449716   0.000449716   0.000449716   0.000449716  
1950          0.000449716   0.000449716   0.000449716   0.000449716   0.000449716   0.000449716   0.000449716   0.000449716   0.000449716   0.000449716   0.000449716  
2000          0.000449716   0.000449716   0.000449716   0.000449716   0.000449716   0.000449716   0.000449716   0.000449716   0.000449716   0.000449716   0.000449716  
2050          0.000449716   0.000449716   0.000449716   0.000449716   0.000449716   0.000449716   0.000449716   0.000449716   0.000449716   0.000449716   0.000449716  
2100          0.000449716   0.000449716   0.000449716   0.000449716   0.000449716   0.000449716   0.000449716   0.000449716   0.000449716   0.000449716   0.000449716  
2150          0.000449716   0.000449716   0.000449716   0.000449716   0.000449716   0.000449716   0.000449716   0.000449716   0.000449716   0.000449716   0.000449716  
2200          0.000449716   0.000449716   0.000449716   0.000449716   0.000449716   0.000449716   0.000449716   0.000449716   0.000449716   0.000449716   0.000449716  
2250          0.000449716   0.000449716   0.000449716   0.000449716   0.000449716   0.000449716   0.000449716   0.000449716   0.000449716   0.000449716   0.000449716  
2300          0.000449716   0.000449716   0.000449716   0.000449716   0.000449716   0.000449716   0.000449716   0.000449716   0.000449716   0.000449716   0.000449716  
2350          0.000449716   0.000449716   0.000449716   0.000449716   0.000449716   0.000449716   0.000449716   0.000449716   0.000449716   0.000449716   0.000449716  
2400          0.000449716   0.000449716   0.000449716   0.000449716   0.000449716   0.000449716   0.000449716   0.000449716   0.000449716   0.000449716   0.000449716  
2450          0.000449716   0.000449716   0.000449716   0.000449716   0.000449716   0.000449716   0.000449716   0.000449716   0.000449716   0.000449716   0.000449716  
2500          0.000449716   0.000449716   0.000449716   0.000449716   0.000449716   0.000449716   0.000449716   0.000449716   0.000449716   0.000449716   0.000449716  
2550          0.000449716   0.000449716   0.000449716   0.000449716   0.000449716   0.000449716   0.000449716   0.000449716   0.000449716   0.000449716   0.000449716  
2600          0.000449716   0.000449716   0.000449716   0.000449716   0.000449716   0.000449716   0.000449716   0.000449716   0.000449716   0.000449716   0.000449716  
2650          0.000449716   0.000449716   0.000449716   0.000449716   0.000449716   0.000449716   0.000449716   0.000449716   0.000449716   0.000449716   0.000449716  
2700          0.000449716   0.000449716   0.000449716   0.000449716   0.000449716   0.000449716   0.000449716   0.000449716   0.000449716   0.000449716   0.000449716  
2750          0.000449716   0.000449716   0.000449716   0.000449716   0.000449716   0.000449716   0.000449716   0.000449716   0.000449716   0.000449716   0.000449716  
2800          0.000449716   0.000449716   0.000449716   0.000449716   0.000449716   0.000449716   0.000449716   0.000449716   0.000449716   0.000449716   0.000449716  
2850          0.000449716   0.000449716   0.000449716   0.000449716   0.000449716   0.000449716   0.000449716   0.000449716   0.000449716   0.000449716   0.000449716  
2900          0.000449716   0.000449716   0.000449716   0.000449716   0.000449716   0.000449716   0.000449716   0.000449716   0.000449716   0.000449716   0.000449716  
2950          0.000449716   0.000449716   0.000449716   0.000449716   0.000449716   0.000449716   0.000449716   0.000449716   0.000449716   0.000449716   0.000449716  
3000          0.000449716   0.000449716   0.000449716   0.000449716   0.000449716   0.000449716   0.000449716   0.000449716   0.000449716   0.000449716   0.000449716  
3050          0.000449716   0.000449716   0.000449716   0.000449716   0.000449716   0.000449716   0.000449716   0.000449716   0.000449716   0.000449716   0.000449716  
3100          0.000449716   0.000449716   0.000449716   0.000449716   0.000449716   0.000449716   0.000449716   0.000449716   0.000449716   0.000449716   0.000449716  
3150          0.000449716   0.000449716   0.000449716   0.000449716   0.000449716   0.000449716   0.000449716   0.000449716   0.000449716   0.000449716   0.000449716  
3200          0.000449716   0.000449716   0.000449716   0.000449716   0.000449716   0.000449716   0.000449716   0.000449716   0.000449716   0.000449716   0.000449716  
3250          0.000449716   0.000449716   0.000449716   0.000449716   0.000449716   0.000449716   0.000449716   0.000449716   0.000449716   0.000449716   0.000449716  
3300          0.000449716   0.000449716   0.000449716   0.000449716   0.000449716   0.000449716   0.000449716   0.000449716   0.000449716   0.000449716   0.000449716  
3350          0.000449716   0.000449716   0.000449716   0.000449716   0.000449716   0.000449716   0.000449716   0.000449716   0.000449716   0.000449716   0.000449716  
3400          0.000449716   0.000449716   0.000449716   0.000449716   0.000449716   0.000449716   0.000449716   0.000449716   0.000449716   0.000449716   0.000449716  
3450          0.000449716   0.000449716   0.000449716   0.000449716   0.000449716   0.000449716   0.000449716   0.000449716   0.000449716   0.000449716   0.000449716  
3500          0.000449716   0.000449716   0.000449716   0.000449716   0.000449716   0.000449716   0.000449716   0.000449716   0.000449716   0.000449716   0.000449716  
3550          0.000449716   0.000449716   0.000449716   0.000449716   0.000449716   0.000449716   0.000449716   0.000449716   0.000449716   0.000449716   0.000449716  
3600          0.000449716   0.000449716   0.000449716   0.000449716   0.000449716   0.000449716   0.000449716   0.000449716   0.000449716   0.000449716   0.000449716  
3650          0.000449716   0.000449716   0.000449716   0.000449716   0.000449716   0.000449716   0.000449716   0.000449716   0.000449716   0.000449716   0.000449716  
3700          0.000449716   0.000449716   0.000449716   0.000449716   0.000449716   0.000449716   0.000449716   0.000449716   0.000449716   0.000449716   0.000449716  
3750          0.000449716   0.000449716   0.000449716   0.000449716   0.000449716   0.000449716   0.000449716   0.000449716   0.000449716   0.000449716   0.000449716  
3800          0.000449716   0.000449716   0.000449716   0.000449716   0.000449716   0.000449716   0.000449716   0.000449716   0.000449716   0.000449716   0.000449716  
3850          0.000449716   0.000449716   0.000449716   0.000449716   0.000449716   0.000449716   0.000449716   0.000449716   0.000449716   0.000449716   0.000449716  
3900          0.000449716   0.000449716   0.000449716   0.000449716   0.000449716   0.000449716   0.000449716   0.000449716   0.000449716   0.000449716   0.000449716  
3950          0.000449716   0.000449716   0.000449716   0.000449716   0.000449716   0.000449716   0.000449716   0.000449716   0.000449716   0.000449716   0.000449716  
4000          0.000449716   0.000449716   0.000449716   0.000449716   0.000449716   0.000449716   0.000449716   0.000449716   0.000449716   0.000449716   0.000449716  
4050          0.000449716   0.000449716   0.000449716   0.000449716   0.000449716   0.000449716   0.000449716   0.000449716   0.000449716   0.000449716   0.000449716  
4100          0.000449716   0.000449716   0.000449716   0.000449716   0.000449716   0.000449716   0.000449716   0.000449716   0.000449716   0.000449716   0.000449716  
4150          0.000449716   0.000449716   0.000449716   0.000449716   0.000449716   0.000449716   0.000449716   0.000449716   0.000449716   0.000449716   0.000449716  
4200          0.000449716   0.000449716   0.000449716   0.000449716   0.000449716   0.000449716   0.000449716   0.000449716   0.000449716   0.000449716   0.000449716  
4250          0.000449716   0.000449716   0.000449716   0.000449716   0.000449716   0.000449716   0.000449716   0.000449716   0.000449716   0.000449716   0.000449716  
4300          0.000449716   0.000449716   0.000449716   0.000449716   0.000449716   0.000449716   0.000449716   0.000449716   0.000449716   0.000449716   0.000449716  
4350          0.000449716   0.000449716   0.000449716   0.000449716   0.000449716   0.000449716   0.000449716   0.000449716   0.000449716   0.000449716   0.000449716  
4400          0.000449716   0.000449716   0.000449716   0.000449716   0.000449716   0.000449716   0.000449716   0.000449716   0.000449716   0.000449716   0.000449716  
4450          0.000449716   0.000449716   0.000449716   0.000449716   0.000449716   0.000449716   0.000449716   0.000449716   0.000449716   0.000449716   0.000449716  
4500          0.000449716   0.000449716   0.000449716   0.000449716   0.000449716   0.000449716   0.000449716   0.000449716   0.000449716   0.000449716   0.000449716  
4550          0.000449716   0.000449716   0.000449716   0.000449716   0.000449716   0.000449716   0.000449716   0.000449716   0.000449716   0.000449716   0.000449716  
4600          0.000449716   0.000449716   0.000449716   0.000449716   0.000449716   0.000449716   0.000449716   0.000449716   0.000449716   0.000449716   0.000449716  
4650          0.000449716   0.000449716   0.000449716   0.000449716   0.000449716   0.000449716   0.000449716   0.000449716   0.000449716   0.000449716   0.000449716  
4700          0.000449716   0.000449716   0.000449716   0.000449716   0.000449716   0.000449716   0.000449716   0.000449716   0.000449716   0.000449716   0.000449716  
4750          0.000449716   0.000449716   0.000449716   0.000449716   0.000449716   0.000449716   0.000449716   0.000449716   0.000449716   0.000449716   0.000449716  
4800          0.000449716   0.000449716   0.000449716   0.000449716   0.000449716   0.000449716   0.000449716   0.000449716   0.000449716   0.000449716   0.000449716  
4850          0.000449716   0.000449716   0.000449716   0.000449716   0.000449716   0.000449716   0.000449716   0.000449716   0.000449716   0.000449716   0.000449716  
4900          0.000449716   0.000449716   0.000449716   0.000449716   0.000449716   0.000449716   0.000449716   0.000449716   0.000449716   0.000449716   0.000449716  
4950          0.000449716   0.000449716   0.000449716   0.000449716   0.000449716   0.000449716   0.000449716   0.000449716   0.000449716   0.000449716   0.000449716  
5000          0.000449716   0.000449716   0.000449716   0.000449716   0.000449716   0.000449716   0.000449716   0.000449716   0.000449716   0.000449716   0.000449716  
