# Probe 0 (0.0015 0.0015 0)
# Probe 1 (0.0015 0.0015 0.002)
# Probe 2 (0.0015 0.0015 0.004)
# Probe 3 (0.0015 0.0015 0.006)
# Probe 4 (0.0015 0.0015 0.008)
# Probe 5 (0.0015 0.0015 0.01)
# Probe 6 (0.0015 0.0015 0.012)
# Probe 7 (0.0015 0.0015 0.014)
# Probe 8 (0.0015 0.0015 0.016)
# Probe 9 (0.0015 0.0015 0.018)
# Probe 10 (0.0015 0.0015 0.02)
# Time        0             1             2             3             4             5             6             7             8             9             10           
50            (-0.00105482 -0.00886933 -2.31851e+07) (-0.0261275 -0.00399143 -2.08795e+07) (-0.0145956 -0.0129947 -1.64446e+07) (-0.00946744 -0.00856403 -1.13604e+07) (-0.0101028 0.00109485 -7.1699e+06) (-0.00536224 0.00248921 -4.54671e+06) (0.00222515 -0.000692961 -3.42725e+06) (0.0035978 0.00114788 -3.54887e+06) (0.003101 0.00369901 -4.70124e+06) (0.00837977 -0.00155347 -6.70661e+06) (-0.000911831 0.00412418 -9.22842e+06)
100           (-0.000849841 -0.000458626 -1.67309e+07) (-0.0107985 0.0121359 -1.60664e+07) (-0.00738749 0.00743929 -1.46939e+07) (0.0102962 -0.0116559 -1.27451e+07) (-0.00211647 -0.000347118 -1.05057e+07) (0.00725638 -0.0100935 -8.41133e+06) (0.00186682 -0.00432583 -6.86911e+06) (-0.00756186 0.00590811 -6.08969e+06) (0.00292734 -0.00366965 -6.05974e+06) (0.00437602 -0.00426324 -6.60033e+06) (-0.00544851 -0.00552166 -7.39023e+06)
150           (0.2846 -0.2938 -1.41522e+07) (-0.00516583 0.0159501 -1.38481e+07) (-0.0182802 0.0259516 -1.32195e+07) (0.0225035 -0.0192611 -1.2299e+07) (-0.0108127 0.00887119 -1.11527e+07) (0.0210903 -0.0278147 -9.9044e+06) (0.00165633 -0.0113381 -8.72772e+06) (-0.0255185 0.0156328 -7.79814e+06) (0.00602095 -0.0135636 -7.22891e+06) (0.0107861 -0.0144782 -7.03236e+06) (-0.120991 -0.00964023 -7.10124e+06)
200           (-0.000574957 -0.000611386 -1.2822e+07) (0.000901779 0.000854074 -1.26547e+07) (0.00486378 0.00494452 -1.23069e+07) (0.00865889 0.00855992 -1.17914e+07) (0.0114935 0.0116092 -1.11269e+07) (0.0134226 0.0132178 -1.03539e+07) (0.0136271 0.013572 -9.53775e+06) (0.0122093 0.0122683 -8.76167e+06) (0.00952596 0.00946172 -8.11073e+06) (0.00607873 0.00599904 -7.65159e+06) (0.00492866 0.00481054 -7.41351e+06)
250           (5.20417e-06 -4.3715e-06 -1.20324e+07) (0.00356229 0.00355622 -1.19285e+07) (0.00367279 0.0036765 -1.17116e+07) (0.0034291 0.00342499 -1.13879e+07) (0.00288086 0.00287137 -1.09617e+07) (0.00203915 0.00205133 -1.04488e+07) (0.000977361 0.00100127 -9.87711e+06) (-0.000101473 -9.47072e-05 -9.28315e+06) (-0.0010635 -0.00107185 -8.71899e+06) (-0.00169465 -0.00174443 -8.2422e+06) (0.000127732 0.000153467 -7.91946e+06)
300           (1.04083e-07 9.71445e-07 -1.15168e+07) (-0.00294337 -0.00294393 -1.14476e+07) (-0.00193956 -0.00193925 -1.1301e+07) (-0.000677531 -0.000677288 -1.10814e+07) (0.00071488 0.000714741 -1.07902e+07) (0.00203242 0.00203206 -1.04322e+07) (0.00334658 0.00334658 -1.00222e+07) (0.00448201 0.00448192 -9.58019e+06) (0.00525174 0.00525172 -9.13513e+06) (0.0055693 0.00556858 -8.73026e+06) (1.43548e-06 2.71918e-06 -8.42929e+06)
350           (1.04083e-07 1.249e-06 -1.11596e+07) (-0.00310009 -0.00309988 -1.11107e+07) (-0.00248822 -0.00248829 -1.10076e+07) (-0.00160781 -0.00160779 -1.08516e+07) (-0.000489348 -0.00048966 -1.06449e+07) (0.000686881 0.000686725 -1.03882e+07) (0.00190598 0.00190587 -1.00908e+07) (0.00317028 0.00317018 -9.76402e+06) (0.00424107 0.0042412 -9.42748e+06) (0.00508595 0.00508598 -9.11069e+06) (-6.64399e-06 -6.5269e-06 -8.86527e+06)
400           (-1.24553e-05 1.3288e-05 -1.09033e+07) (-0.0174921 -0.0174818 -1.08685e+07) (-0.0182232 -0.0182179 -1.07931e+07) (-0.017506 -0.017522 -1.06805e+07) (-0.0153746 -0.0153739 -1.05311e+07) (-0.0122008 -0.0122041 -1.03446e+07) (-0.0076348 -0.00763568 -1.01269e+07) (-0.00172735 -0.00173086 -9.88741e+06) (0.00504646 0.00504213 -9.63757e+06) (0.0123342 0.01233 -9.39901e+06) (-1.31882e-05 -1.44372e-05 -9.21074e+06)
450           (-1.04083e-07 -1.73472e-07 -1.07167e+07) (0.00550809 0.00550799 -1.06906e+07) (0.00431731 0.00431745 -1.06365e+07) (0.00304833 0.00304864 -1.05537e+07) (0.00125473 0.00125466 -1.04448e+07) (-0.000694982 -0.000694843 -1.03088e+07) (-0.00267673 -0.00267677 -1.01493e+07) (-0.00491608 -0.00491595 -9.97431e+06) (-0.00702978 -0.00702984 -9.79058e+06) (-0.0088695 -0.00886947 -9.61406e+06) (3.59955e-07 3.9465e-07 -9.47402e+06)
500           (-8.32667e-07 8.32667e-07 -1.05795e+07) (-0.00291989 -0.0029193 -1.05614e+07) (-0.00308996 -0.00308788 -1.05205e+07) (-0.00289466 -0.00289706 -1.04608e+07) (-0.00234642 -0.00235168 -1.03808e+07) (-0.00178113 -0.00178349 -1.02812e+07) (-0.000983484 -0.000985791 -1.01647e+07) (0.000114561 0.000111924 -1.00365e+07) (0.00128741 0.00128616 -9.90252e+06) (0.0025294 0.00252949 -9.77304e+06) (-6.50521e-08 1.9082e-07 -9.67024e+06)
550           (5.55112e-07 4.85723e-07 -1.0479e+07) (-0.00632751 -0.00632754 -1.04656e+07) (-0.00614821 -0.00614824 -1.04359e+07) (-0.00515647 -0.00515647 -1.03919e+07) (-0.0030834 -0.00308347 -1.03335e+07) (-0.00163836 -0.00163832 -1.02607e+07) (0.000678017 0.000678051 -1.01758e+07) (0.00315607 0.00315609 -1.00823e+07) (0.00575399 0.00575399 -9.98419e+06) (0.00835338 0.00835341 -9.89036e+06) (-2.59341e-05 -2.5843e-05 -9.815e+06)
600           (4.05925e-06 -3.26128e-06 -1.04053e+07) (-0.00218065 -0.00217909 -1.03954e+07) (-0.00229643 -0.00229317 -1.03736e+07) (-0.00220882 -0.00220882 -1.03414e+07) (-0.00170829 -0.00171231 -1.02989e+07) (-0.00130815 -0.00131253 -1.02458e+07) (-0.000662127 -0.000663775 -1.01839e+07) (0.000111543 0.000112549 -1.01159e+07) (0.00102715 0.00102723 -1.00448e+07) (0.00190936 0.00190952 -9.97605e+06) (-4.43222e-06 -3.02276e-06 -9.92129e+06)
650           (2.15106e-06 2.32453e-06 -1.03514e+07) (0.0133134 0.0133133 -1.03445e+07) (0.0168932 0.0168931 -1.03286e+07) (0.0134223 0.0134223 -1.03044e+07) (0.0101847 0.0101845 -1.02739e+07) (0.00778466 0.00778457 -1.02346e+07) (0.00387924 0.00387921 -1.01899e+07) (-0.0020532 -0.00205315 -1.01401e+07) (-0.0077048 -0.00770479 -1.00883e+07) (-0.0144343 -0.0144343 -1.00384e+07) (-7.58985e-05 -7.58942e-05 -9.99868e+06)
700           (-1.52656e-06 -2.35922e-06 -1.03122e+07) (0.000110398 0.000110745 -1.03068e+07) (0.000131249 0.000131423 -1.02953e+07) (0.000106998 0.000107067 -1.02781e+07) (5.36376e-05 5.40193e-05 -1.02552e+07) (2.56913e-05 2.60902e-05 -1.02272e+07) (-2.61423e-05 -2.61423e-05 -1.01941e+07) (-9.00668e-05 -9.01709e-05 -1.01582e+07) (-0.000158493 -0.000158745 -1.01205e+07) (-0.000219737 -0.000219902 -1.00842e+07) (7.06596e-05 7.00481e-05 -1.00553e+07)
750           (1.94289e-06 -1.97758e-06 -1.02834e+07) (-0.001559 -0.00156174 -1.02798e+07) (-0.00159862 -0.00160025 -1.02715e+07) (-0.00145974 -0.00146189 -1.02582e+07) (-0.00161442 -0.00161794 -1.02422e+07) (-0.00161314 -0.00161536 -1.02212e+07) (-0.000823838 -0.000824948 -1.01972e+07) (-0.000868038 -0.000869547 -1.01712e+07) (-0.000187116 -0.00018859 -1.01443e+07) (0.000552934 0.0005527 -1.01173e+07) (-3.22659e-06 -2.35055e-06 -1.00966e+07)
800           (3.46945e-08 1.73472e-07 -1.02625e+07) (-0.00239819 -0.00239815 -1.02599e+07) (-0.00191645 -0.00191645 -1.02535e+07) (-0.00257783 -0.00257783 -1.02443e+07) (-0.00129273 -0.00129272 -1.02324e+07) (-0.000439215 -0.000439215 -1.02174e+07) (-0.000431963 -0.000431911 -1.01996e+07) (0.00118154 0.00118157 -1.01808e+07) (0.001641 0.00164096 -1.01609e+07) (0.00228907 0.0022891 -1.01414e+07) (-6.07153e-06 -6.04985e-06 -1.01264e+07)
850           (2.77556e-07 1.38778e-07 -1.02472e+07) (-0.00677781 -0.00677784 -1.02456e+07) (-0.00334462 -0.00334476 -1.02406e+07) (-0.00359438 -0.00359431 -1.0234e+07) (-0.0042322 -0.00423205 -1.02257e+07) (-0.00211922 -0.00211928 -1.02142e+07) (-0.000434167 -0.000434357 -1.02015e+07) (-0.000646653 -0.000646705 -1.01876e+07) (0.00249085 0.00249078 -1.01731e+07) (0.00360409 0.00360418 -1.01589e+07) (-1.34007e-06 -1.1666e-06 -1.01481e+07)
900           (2.74086e-06 1.21431e-06 -1.02367e+07) (0.0391709 0.0391697 -1.02346e+07) (0.0887605 0.0887592 -1.02319e+07) (0.0440323 0.0440342 -1.02267e+07) (0.013981 0.0139837 -1.02203e+07) (0.0188521 0.0188556 -1.02125e+07) (-0.0108053 -0.0108052 -1.02028e+07) (-0.0291685 -0.0291689 -1.01924e+07) (-0.0344088 -0.0344086 -1.0182e+07) (-0.0708354 -0.0708346 -1.01715e+07) (-0.000116252 -0.000115363 -1.01637e+07)
950           (9.71445e-07 -1.63064e-06 -1.02287e+07) (0.0076052 0.0076051 -1.0228e+07) (0.0416224 0.0416234 -1.02252e+07) (0.0112282 0.0112286 -1.02216e+07) (0.0154455 0.0154476 -1.02164e+07) (0.00456862 0.004572 -1.02104e+07) (0.00549205 0.00549177 -1.02033e+07) (-0.014101 -0.0141004 -1.01962e+07) (-0.00805801 -0.00805688 -1.01882e+07) (-0.0290394 -0.0290378 -1.01812e+07) (-5.98133e-05 -5.80092e-05 -1.01748e+07)
1000          (1.31839e-05 -9.67976e-06 -1.0223e+07) (0.0185121 0.0185074 -1.02226e+07) (0.0112978 0.0112993 -1.02203e+07) (0.0181473 0.0181419 -1.02177e+07) (0.0174622 0.0174622 -1.02137e+07) (0.0206618 0.0206674 -1.02094e+07) (0.00660933 0.00661263 -1.02037e+07) (0.00874883 0.00874823 -1.01986e+07) (-0.0101757 -0.0101775 -1.01924e+07) (-0.00991768 -0.00991753 -1.01874e+07) (-3.71274e-05 -3.67718e-05 -1.01828e+07)
1050          (3.7817e-06 -3.29597e-06 -1.02192e+07) (0.0096952 0.00968683 -1.02184e+07) (0.0168564 0.0168563 -1.02169e+07) (0.00237546 0.00237321 -1.02148e+07) (0.0160429 0.0160436 -1.02118e+07) (0.00571786 0.00572003 -1.02086e+07) (0.00278859 0.00278878 -1.02046e+07) (0.0063388 0.00633988 -1.02003e+07) (-0.0057992 -0.00579715 -1.01963e+07) (-0.00590775 -0.00590665 -1.0192e+07) (-2.35662e-05 -2.14282e-05 -1.01889e+07)
1100          (-7.70217e-06 7.87564e-06 -1.02163e+07) (0.000821045 0.00082493 -1.02158e+07) (0.000387156 0.000387884 -1.02147e+07) (0.000709988 0.000709259 -1.02131e+07) (-0.000270357 -0.000272091 -1.02106e+07) (0.00112816 0.00112646 -1.02083e+07) (-0.000754657 -0.000755195 -1.02046e+07) (0.00085933 0.000860041 -1.02019e+07) (-0.00143152 -0.00143036 -1.01979e+07) (-0.000474716 -0.000473822 -1.01955e+07) (-3.63425e-06 -3.23526e-06 -1.01927e+07)
1150          (2.08167e-07 -5.55112e-07 -1.02144e+07) (-0.00903142 -0.00903114 -1.02139e+07) (-0.0133685 -0.0133691 -1.02128e+07) (-0.0177031 -0.0177032 -1.02115e+07) (-0.01906 -0.01906 -1.02097e+07) (-0.0223241 -0.0223241 -1.02076e+07) (-0.0203152 -0.0203155 -1.02053e+07) (-0.0206656 -0.0206657 -1.02025e+07) (-0.0163097 -0.0163098 -1.02003e+07) (-0.0113093 -0.0113092 -1.01974e+07) (-1.41814e-06 -1.37477e-06 -1.01958e+07)
1200          (-7.28584e-07 2.77556e-07 -1.02131e+07) (-0.00478687 -0.00478707 -1.02128e+07) (-0.00848772 -0.00848783 -1.02119e+07) (-0.0100822 -0.0100825 -1.02108e+07) (-0.013914 -0.0139136 -1.02091e+07) (-0.0132799 -0.0132794 -1.02074e+07) (-0.0161642 -0.016164 -1.02049e+07) (-0.0133574 -0.0133572 -1.02031e+07) (-0.011949 -0.0119489 -1.02007e+07) (-0.00851762 -0.00851749 -1.01993e+07) (1.86916e-06 2.1207e-06 -1.01977e+07)
1250          (1.04083e-07 -5.55112e-07 -1.0212e+07) (-0.00333605 -0.00333612 -1.02119e+07) (-0.00750938 -0.00750917 -1.02108e+07) (-0.00826207 -0.00826193 -1.02097e+07) (-0.0119102 -0.0119103 -1.02085e+07) (-0.0120827 -0.0120824 -1.02073e+07) (-0.0144354 -0.0144352 -1.02051e+07) (-0.0140631 -0.0140631 -1.02036e+07) (-0.0109236 -0.0109236 -1.02016e+07) (-0.00958716 -0.00958711 -1.02008e+07) (6.02816e-07 6.67869e-07 -1.01992e+07)
1300          (3.46945e-08 1.04083e-07 -1.02113e+07) (-0.00114034 -0.0011403 -1.02111e+07) (-0.00136495 -0.00136495 -1.02103e+07) (-0.00258182 -0.00258182 -1.02094e+07) (-0.00189312 -0.00189312 -1.02084e+07) (-0.00300352 -0.00300352 -1.02068e+07) (-0.00217621 -0.00217621 -1.02058e+07) (-0.00244174 -0.00244174 -1.02036e+07) (-0.00210396 -0.00210399 -1.0203e+07) (-0.000844064 -0.000844047 -1.02011e+07) (-4.96565e-06 -4.95697e-06 -1.02007e+07)
1350          (2.08167e-07 1.38778e-07 -1.0211e+07) (-0.000217881 -0.000218228 -1.02103e+07) (-0.000365437 -0.000365506 -1.021e+07) (-0.000849737 -0.000849806 -1.02092e+07) (-0.00127051 -0.00127044 -1.02083e+07) (-0.00227138 -0.00227115 -1.02067e+07) (-0.00308054 -0.00308083 -1.02055e+07) (-0.00409279 -0.0040928 -1.02037e+07) (-0.00562421 -0.00562409 -1.02027e+07) (-0.00395797 -0.00395786 -1.02011e+07) (3.16587e-07 4.25007e-07 -1.02009e+07)
1400          (1.38778e-07 1.38778e-07 -1.0211e+07) (-1.38778e-06 -1.249e-06 -1.02103e+07) (-6.2797e-06 -6.245e-06 -1.021e+07) (-2.77903e-05 -2.77556e-05 -1.02092e+07) (-6.7845e-05 -6.79144e-05 -1.02083e+07) (-0.000175172 -0.000175259 -1.02067e+07) (-0.000357284 -0.000357162 -1.02055e+07) (-0.000698122 -0.000698087 -1.02037e+07) (-0.00144531 -0.00144543 -1.02027e+07) (-0.00154735 -0.00154737 -1.02011e+07) (7.24247e-07 6.98226e-07 -1.02009e+07)
1450          (1.38778e-07 1.38778e-07 -1.0211e+07) (-1.38778e-06 -1.249e-06 -1.02103e+07) (-6.2797e-06 -6.245e-06 -1.021e+07) (-2.77903e-05 -2.77556e-05 -1.02092e+07) (-6.7845e-05 -6.79144e-05 -1.02083e+07) (-0.000175172 -0.000175259 -1.02067e+07) (-0.000357284 -0.000357162 -1.02055e+07) (-0.000698122 -0.000698087 -1.02037e+07) (-0.00144531 -0.00144543 -1.02027e+07) (-0.00154735 -0.00154737 -1.02011e+07) (7.24247e-07 6.98226e-07 -1.02009e+07)
1500          (1.38778e-07 1.38778e-07 -1.0211e+07) (-1.38778e-06 -1.249e-06 -1.02103e+07) (-6.2797e-06 -6.245e-06 -1.021e+07) (-2.77903e-05 -2.77556e-05 -1.02092e+07) (-6.7845e-05 -6.79144e-05 -1.02083e+07) (-0.000175172 -0.000175259 -1.02067e+07) (-0.000357284 -0.000357162 -1.02055e+07) (-0.000698122 -0.000698087 -1.02037e+07) (-0.00144531 -0.00144543 -1.02027e+07) (-0.00154735 -0.00154737 -1.02011e+07) (7.24247e-07 6.98226e-07 -1.02009e+07)
1550          (1.38778e-07 1.38778e-07 -1.0211e+07) (-1.38778e-06 -1.249e-06 -1.02103e+07) (-6.2797e-06 -6.245e-06 -1.021e+07) (-2.77903e-05 -2.77556e-05 -1.02092e+07) (-6.7845e-05 -6.79144e-05 -1.02083e+07) (-0.000175172 -0.000175259 -1.02067e+07) (-0.000357284 -0.000357162 -1.02055e+07) (-0.000698122 -0.000698087 -1.02037e+07) (-0.00144531 -0.00144543 -1.02027e+07) (-0.00154735 -0.00154737 -1.02011e+07) (7.24247e-07 6.98226e-07 -1.02009e+07)
1600          (1.38778e-07 1.38778e-07 -1.0211e+07) (-1.38778e-06 -1.249e-06 -1.02103e+07) (-6.2797e-06 -6.245e-06 -1.021e+07) (-2.77903e-05 -2.77556e-05 -1.02092e+07) (-6.7845e-05 -6.79144e-05 -1.02083e+07) (-0.000175172 -0.000175259 -1.02067e+07) (-0.000357284 -0.000357162 -1.02055e+07) (-0.000698122 -0.000698087 -1.02037e+07) (-0.00144531 -0.00144543 -1.02027e+07) (-0.00154735 -0.00154737 -1.02011e+07) (7.24247e-07 6.98226e-07 -1.02009e+07)
1650          (1.38778e-07 1.38778e-07 -1.0211e+07) (-1.38778e-06 -1.249e-06 -1.02103e+07) (-6.2797e-06 -6.245e-06 -1.021e+07) (-2.77903e-05 -2.77556e-05 -1.02092e+07) (-6.7845e-05 -6.79144e-05 -1.02083e+07) (-0.000175172 -0.000175259 -1.02067e+07) (-0.000357284 -0.000357162 -1.02055e+07) (-0.000698122 -0.000698087 -1.02037e+07) (-0.00144531 -0.00144543 -1.02027e+07) (-0.00154735 -0.00154737 -1.02011e+07) (7.24247e-07 6.98226e-07 -1.02009e+07)
1700          (1.38778e-07 1.38778e-07 -1.0211e+07) (-1.38778e-06 -1.249e-06 -1.02103e+07) (-6.2797e-06 -6.245e-06 -1.021e+07) (-2.77903e-05 -2.77556e-05 -1.02092e+07) (-6.7845e-05 -6.79144e-05 -1.02083e+07) (-0.000175172 -0.000175259 -1.02067e+07) (-0.000357284 -0.000357162 -1.02055e+07) (-0.000698122 -0.000698087 -1.02037e+07) (-0.00144531 -0.00144543 -1.02027e+07) (-0.00154735 -0.00154737 -1.02011e+07) (7.24247e-07 6.98226e-07 -1.02009e+07)
1750          (1.38778e-07 1.38778e-07 -1.0211e+07) (-1.38778e-06 -1.249e-06 -1.02103e+07) (-6.2797e-06 -6.245e-06 -1.021e+07) (-2.77903e-05 -2.77556e-05 -1.02092e+07) (-6.7845e-05 -6.79144e-05 -1.02083e+07) (-0.000175172 -0.000175259 -1.02067e+07) (-0.000357284 -0.000357162 -1.02055e+07) (-0.000698122 -0.000698087 -1.02037e+07) (-0.00144531 -0.00144543 -1.02027e+07) (-0.00154735 -0.00154737 -1.02011e+07) (7.24247e-07 6.98226e-07 -1.02009e+07)
1800          (1.38778e-07 1.38778e-07 -1.0211e+07) (-1.38778e-06 -1.249e-06 -1.02103e+07) (-6.2797e-06 -6.245e-06 -1.021e+07) (-2.77903e-05 -2.77556e-05 -1.02092e+07) (-6.7845e-05 -6.79144e-05 -1.02083e+07) (-0.000175172 -0.000175259 -1.02067e+07) (-0.000357284 -0.000357162 -1.02055e+07) (-0.000698122 -0.000698087 -1.02037e+07) (-0.00144531 -0.00144543 -1.02027e+07) (-0.00154735 -0.00154737 -1.02011e+07) (7.24247e-07 6.98226e-07 -1.02009e+07)
1850          (1.38778e-07 1.38778e-07 -1.0211e+07) (-1.38778e-06 -1.249e-06 -1.02103e+07) (-6.2797e-06 -6.245e-06 -1.021e+07) (-2.77903e-05 -2.77556e-05 -1.02092e+07) (-6.7845e-05 -6.79144e-05 -1.02083e+07) (-0.000175172 -0.000175259 -1.02067e+07) (-0.000357284 -0.000357162 -1.02055e+07) (-0.000698122 -0.000698087 -1.02037e+07) (-0.00144531 -0.00144543 -1.02027e+07) (-0.00154735 -0.00154737 -1.02011e+07) (7.24247e-07 6.98226e-07 -1.02009e+07)
1900          (1.38778e-07 1.38778e-07 -1.0211e+07) (-1.38778e-06 -1.249e-06 -1.02103e+07) (-6.2797e-06 -6.245e-06 -1.021e+07) (-2.77903e-05 -2.77556e-05 -1.02092e+07) (-6.7845e-05 -6.79144e-05 -1.02083e+07) (-0.000175172 -0.000175259 -1.02067e+07) (-0.000357284 -0.000357162 -1.02055e+07) (-0.000698122 -0.000698087 -1.02037e+07) (-0.00144531 -0.00144543 -1.02027e+07) (-0.00154735 -0.00154737 -1.02011e+07) (7.24247e-07 6.98226e-07 -1.02009e+07)
1950          (1.38778e-07 1.38778e-07 -1.0211e+07) (-1.38778e-06 -1.249e-06 -1.02103e+07) (-6.2797e-06 -6.245e-06 -1.021e+07) (-2.77903e-05 -2.77556e-05 -1.02092e+07) (-6.7845e-05 -6.79144e-05 -1.02083e+07) (-0.000175172 -0.000175259 -1.02067e+07) (-0.000357284 -0.000357162 -1.02055e+07) (-0.000698122 -0.000698087 -1.02037e+07) (-0.00144531 -0.00144543 -1.02027e+07) (-0.00154735 -0.00154737 -1.02011e+07) (7.24247e-07 6.98226e-07 -1.02009e+07)
2000          (1.38778e-07 1.38778e-07 -1.0211e+07) (-1.38778e-06 -1.249e-06 -1.02103e+07) (-6.2797e-06 -6.245e-06 -1.021e+07) (-2.77903e-05 -2.77556e-05 -1.02092e+07) (-6.7845e-05 -6.79144e-05 -1.02083e+07) (-0.000175172 -0.000175259 -1.02067e+07) (-0.000357284 -0.000357162 -1.02055e+07) (-0.000698122 -0.000698087 -1.02037e+07) (-0.00144531 -0.00144543 -1.02027e+07) (-0.00154735 -0.00154737 -1.02011e+07) (7.24247e-07 6.98226e-07 -1.02009e+07)
2050          (1.38778e-07 1.38778e-07 -1.0211e+07) (-1.38778e-06 -1.249e-06 -1.02103e+07) (-6.2797e-06 -6.245e-06 -1.021e+07) (-2.77903e-05 -2.77556e-05 -1.02092e+07) (-6.7845e-05 -6.79144e-05 -1.02083e+07) (-0.000175172 -0.000175259 -1.02067e+07) (-0.000357284 -0.000357162 -1.02055e+07) (-0.000698122 -0.000698087 -1.02037e+07) (-0.00144531 -0.00144543 -1.02027e+07) (-0.00154735 -0.00154737 -1.02011e+07) (7.24247e-07 6.98226e-07 -1.02009e+07)
2100          (1.38778e-07 1.38778e-07 -1.0211e+07) (-1.38778e-06 -1.249e-06 -1.02103e+07) (-6.2797e-06 -6.245e-06 -1.021e+07) (-2.77903e-05 -2.77556e-05 -1.02092e+07) (-6.7845e-05 -6.79144e-05 -1.02083e+07) (-0.000175172 -0.000175259 -1.02067e+07) (-0.000357284 -0.000357162 -1.02055e+07) (-0.000698122 -0.000698087 -1.02037e+07) (-0.00144531 -0.00144543 -1.02027e+07) (-0.00154735 -0.00154737 -1.02011e+07) (7.24247e-07 6.98226e-07 -1.02009e+07)
2150          (1.38778e-07 1.38778e-07 -1.0211e+07) (-1.38778e-06 -1.249e-06 -1.02103e+07) (-6.2797e-06 -6.245e-06 -1.021e+07) (-2.77903e-05 -2.77556e-05 -1.02092e+07) (-6.7845e-05 -6.79144e-05 -1.02083e+07) (-0.000175172 -0.000175259 -1.02067e+07) (-0.000357284 -0.000357162 -1.02055e+07) (-0.000698122 -0.000698087 -1.02037e+07) (-0.00144531 -0.00144543 -1.02027e+07) (-0.00154735 -0.00154737 -1.02011e+07) (7.24247e-07 6.98226e-07 -1.02009e+07)
2200          (1.38778e-07 1.38778e-07 -1.0211e+07) (-1.38778e-06 -1.249e-06 -1.02103e+07) (-6.2797e-06 -6.245e-06 -1.021e+07) (-2.77903e-05 -2.77556e-05 -1.02092e+07) (-6.7845e-05 -6.79144e-05 -1.02083e+07) (-0.000175172 -0.000175259 -1.02067e+07) (-0.000357284 -0.000357162 -1.02055e+07) (-0.000698122 -0.000698087 -1.02037e+07) (-0.00144531 -0.00144543 -1.02027e+07) (-0.00154735 -0.00154737 -1.02011e+07) (7.24247e-07 6.98226e-07 -1.02009e+07)
2250          (1.38778e-07 1.38778e-07 -1.0211e+07) (-1.38778e-06 -1.249e-06 -1.02103e+07) (-6.2797e-06 -6.245e-06 -1.021e+07) (-2.77903e-05 -2.77556e-05 -1.02092e+07) (-6.7845e-05 -6.79144e-05 -1.02083e+07) (-0.000175172 -0.000175259 -1.02067e+07) (-0.000357284 -0.000357162 -1.02055e+07) (-0.000698122 -0.000698087 -1.02037e+07) (-0.00144531 -0.00144543 -1.02027e+07) (-0.00154735 -0.00154737 -1.02011e+07) (7.24247e-07 6.98226e-07 -1.02009e+07)
2300          (1.38778e-07 1.38778e-07 -1.0211e+07) (-1.38778e-06 -1.249e-06 -1.02103e+07) (-6.2797e-06 -6.245e-06 -1.021e+07) (-2.77903e-05 -2.77556e-05 -1.02092e+07) (-6.7845e-05 -6.79144e-05 -1.02083e+07) (-0.000175172 -0.000175259 -1.02067e+07) (-0.000357284 -0.000357162 -1.02055e+07) (-0.000698122 -0.000698087 -1.02037e+07) (-0.00144531 -0.00144543 -1.02027e+07) (-0.00154735 -0.00154737 -1.02011e+07) (7.24247e-07 6.98226e-07 -1.02009e+07)
2350          (1.38778e-07 1.38778e-07 -1.0211e+07) (-1.38778e-06 -1.249e-06 -1.02103e+07) (-6.2797e-06 -6.245e-06 -1.021e+07) (-2.77903e-05 -2.77556e-05 -1.02092e+07) (-6.7845e-05 -6.79144e-05 -1.02083e+07) (-0.000175172 -0.000175259 -1.02067e+07) (-0.000357284 -0.000357162 -1.02055e+07) (-0.000698122 -0.000698087 -1.02037e+07) (-0.00144531 -0.00144543 -1.02027e+07) (-0.00154735 -0.00154737 -1.02011e+07) (7.24247e-07 6.98226e-07 -1.02009e+07)
2400          (1.38778e-07 1.38778e-07 -1.0211e+07) (-1.38778e-06 -1.249e-06 -1.02103e+07) (-6.2797e-06 -6.245e-06 -1.021e+07) (-2.77903e-05 -2.77556e-05 -1.02092e+07) (-6.7845e-05 -6.79144e-05 -1.02083e+07) (-0.000175172 -0.000175259 -1.02067e+07) (-0.000357284 -0.000357162 -1.02055e+07) (-0.000698122 -0.000698087 -1.02037e+07) (-0.00144531 -0.00144543 -1.02027e+07) (-0.00154735 -0.00154737 -1.02011e+07) (7.24247e-07 6.98226e-07 -1.02009e+07)
2450          (1.38778e-07 1.38778e-07 -1.0211e+07) (-1.38778e-06 -1.249e-06 -1.02103e+07) (-6.2797e-06 -6.245e-06 -1.021e+07) (-2.77903e-05 -2.77556e-05 -1.02092e+07) (-6.7845e-05 -6.79144e-05 -1.02083e+07) (-0.000175172 -0.000175259 -1.02067e+07) (-0.000357284 -0.000357162 -1.02055e+07) (-0.000698122 -0.000698087 -1.02037e+07) (-0.00144531 -0.00144543 -1.02027e+07) (-0.00154735 -0.00154737 -1.02011e+07) (7.24247e-07 6.98226e-07 -1.02009e+07)
2500          (1.38778e-07 1.38778e-07 -1.0211e+07) (-1.38778e-06 -1.249e-06 -1.02103e+07) (-6.2797e-06 -6.245e-06 -1.021e+07) (-2.77903e-05 -2.77556e-05 -1.02092e+07) (-6.7845e-05 -6.79144e-05 -1.02083e+07) (-0.000175172 -0.000175259 -1.02067e+07) (-0.000357284 -0.000357162 -1.02055e+07) (-0.000698122 -0.000698087 -1.02037e+07) (-0.00144531 -0.00144543 -1.02027e+07) (-0.00154735 -0.00154737 -1.02011e+07) (7.24247e-07 6.98226e-07 -1.02009e+07)
2550          (1.38778e-07 1.38778e-07 -1.0211e+07) (-1.38778e-06 -1.249e-06 -1.02103e+07) (-6.2797e-06 -6.245e-06 -1.021e+07) (-2.77903e-05 -2.77556e-05 -1.02092e+07) (-6.7845e-05 -6.79144e-05 -1.02083e+07) (-0.000175172 -0.000175259 -1.02067e+07) (-0.000357284 -0.000357162 -1.02055e+07) (-0.000698122 -0.000698087 -1.02037e+07) (-0.00144531 -0.00144543 -1.02027e+07) (-0.00154735 -0.00154737 -1.02011e+07) (7.24247e-07 6.98226e-07 -1.02009e+07)
2600          (1.38778e-07 1.38778e-07 -1.0211e+07) (-1.38778e-06 -1.249e-06 -1.02103e+07) (-6.2797e-06 -6.245e-06 -1.021e+07) (-2.77903e-05 -2.77556e-05 -1.02092e+07) (-6.7845e-05 -6.79144e-05 -1.02083e+07) (-0.000175172 -0.000175259 -1.02067e+07) (-0.000357284 -0.000357162 -1.02055e+07) (-0.000698122 -0.000698087 -1.02037e+07) (-0.00144531 -0.00144543 -1.02027e+07) (-0.00154735 -0.00154737 -1.02011e+07) (7.24247e-07 6.98226e-07 -1.02009e+07)
2650          (1.38778e-07 1.38778e-07 -1.0211e+07) (-1.38778e-06 -1.249e-06 -1.02103e+07) (-6.2797e-06 -6.245e-06 -1.021e+07) (-2.77903e-05 -2.77556e-05 -1.02092e+07) (-6.7845e-05 -6.79144e-05 -1.02083e+07) (-0.000175172 -0.000175259 -1.02067e+07) (-0.000357284 -0.000357162 -1.02055e+07) (-0.000698122 -0.000698087 -1.02037e+07) (-0.00144531 -0.00144543 -1.02027e+07) (-0.00154735 -0.00154737 -1.02011e+07) (7.24247e-07 6.98226e-07 -1.02009e+07)
2700          (1.38778e-07 1.38778e-07 -1.0211e+07) (-1.38778e-06 -1.249e-06 -1.02103e+07) (-6.2797e-06 -6.245e-06 -1.021e+07) (-2.77903e-05 -2.77556e-05 -1.02092e+07) (-6.7845e-05 -6.79144e-05 -1.02083e+07) (-0.000175172 -0.000175259 -1.02067e+07) (-0.000357284 -0.000357162 -1.02055e+07) (-0.000698122 -0.000698087 -1.02037e+07) (-0.00144531 -0.00144543 -1.02027e+07) (-0.00154735 -0.00154737 -1.02011e+07) (7.24247e-07 6.98226e-07 -1.02009e+07)
2750          (1.38778e-07 1.38778e-07 -1.0211e+07) (-1.38778e-06 -1.249e-06 -1.02103e+07) (-6.2797e-06 -6.245e-06 -1.021e+07) (-2.77903e-05 -2.77556e-05 -1.02092e+07) (-6.7845e-05 -6.79144e-05 -1.02083e+07) (-0.000175172 -0.000175259 -1.02067e+07) (-0.000357284 -0.000357162 -1.02055e+07) (-0.000698122 -0.000698087 -1.02037e+07) (-0.00144531 -0.00144543 -1.02027e+07) (-0.00154735 -0.00154737 -1.02011e+07) (7.24247e-07 6.98226e-07 -1.02009e+07)
2800          (1.38778e-07 1.38778e-07 -1.0211e+07) (-1.38778e-06 -1.249e-06 -1.02103e+07) (-6.2797e-06 -6.245e-06 -1.021e+07) (-2.77903e-05 -2.77556e-05 -1.02092e+07) (-6.7845e-05 -6.79144e-05 -1.02083e+07) (-0.000175172 -0.000175259 -1.02067e+07) (-0.000357284 -0.000357162 -1.02055e+07) (-0.000698122 -0.000698087 -1.02037e+07) (-0.00144531 -0.00144543 -1.02027e+07) (-0.00154735 -0.00154737 -1.02011e+07) (7.24247e-07 6.98226e-07 -1.02009e+07)
2850          (1.38778e-07 1.38778e-07 -1.0211e+07) (-1.38778e-06 -1.249e-06 -1.02103e+07) (-6.2797e-06 -6.245e-06 -1.021e+07) (-2.77903e-05 -2.77556e-05 -1.02092e+07) (-6.7845e-05 -6.79144e-05 -1.02083e+07) (-0.000175172 -0.000175259 -1.02067e+07) (-0.000357284 -0.000357162 -1.02055e+07) (-0.000698122 -0.000698087 -1.02037e+07) (-0.00144531 -0.00144543 -1.02027e+07) (-0.00154735 -0.00154737 -1.02011e+07) (7.24247e-07 6.98226e-07 -1.02009e+07)
2900          (1.38778e-07 1.38778e-07 -1.0211e+07) (-1.38778e-06 -1.249e-06 -1.02103e+07) (-6.2797e-06 -6.245e-06 -1.021e+07) (-2.77903e-05 -2.77556e-05 -1.02092e+07) (-6.7845e-05 -6.79144e-05 -1.02083e+07) (-0.000175172 -0.000175259 -1.02067e+07) (-0.000357284 -0.000357162 -1.02055e+07) (-0.000698122 -0.000698087 -1.02037e+07) (-0.00144531 -0.00144543 -1.02027e+07) (-0.00154735 -0.00154737 -1.02011e+07) (7.24247e-07 6.98226e-07 -1.02009e+07)
2950          (1.38778e-07 1.38778e-07 -1.0211e+07) (-1.38778e-06 -1.249e-06 -1.02103e+07) (-6.2797e-06 -6.245e-06 -1.021e+07) (-2.77903e-05 -2.77556e-05 -1.02092e+07) (-6.7845e-05 -6.79144e-05 -1.02083e+07) (-0.000175172 -0.000175259 -1.02067e+07) (-0.000357284 -0.000357162 -1.02055e+07) (-0.000698122 -0.000698087 -1.02037e+07) (-0.00144531 -0.00144543 -1.02027e+07) (-0.00154735 -0.00154737 -1.02011e+07) (7.24247e-07 6.98226e-07 -1.02009e+07)
3000          (1.38778e-07 1.38778e-07 -1.0211e+07) (-1.38778e-06 -1.249e-06 -1.02103e+07) (-6.2797e-06 -6.245e-06 -1.021e+07) (-2.77903e-05 -2.77556e-05 -1.02092e+07) (-6.7845e-05 -6.79144e-05 -1.02083e+07) (-0.000175172 -0.000175259 -1.02067e+07) (-0.000357284 -0.000357162 -1.02055e+07) (-0.000698122 -0.000698087 -1.02037e+07) (-0.00144531 -0.00144543 -1.02027e+07) (-0.00154735 -0.00154737 -1.02011e+07) (7.24247e-07 6.98226e-07 -1.02009e+07)
3050          (1.38778e-07 1.38778e-07 -1.0211e+07) (-1.38778e-06 -1.249e-06 -1.02103e+07) (-6.2797e-06 -6.245e-06 -1.021e+07) (-2.77903e-05 -2.77556e-05 -1.02092e+07) (-6.7845e-05 -6.79144e-05 -1.02083e+07) (-0.000175172 -0.000175259 -1.02067e+07) (-0.000357284 -0.000357162 -1.02055e+07) (-0.000698122 -0.000698087 -1.02037e+07) (-0.00144531 -0.00144543 -1.02027e+07) (-0.00154735 -0.00154737 -1.02011e+07) (7.24247e-07 6.98226e-07 -1.02009e+07)
3100          (1.38778e-07 1.38778e-07 -1.0211e+07) (-1.38778e-06 -1.249e-06 -1.02103e+07) (-6.2797e-06 -6.245e-06 -1.021e+07) (-2.77903e-05 -2.77556e-05 -1.02092e+07) (-6.7845e-05 -6.79144e-05 -1.02083e+07) (-0.000175172 -0.000175259 -1.02067e+07) (-0.000357284 -0.000357162 -1.02055e+07) (-0.000698122 -0.000698087 -1.02037e+07) (-0.00144531 -0.00144543 -1.02027e+07) (-0.00154735 -0.00154737 -1.02011e+07) (7.24247e-07 6.98226e-07 -1.02009e+07)
3150          (1.38778e-07 1.38778e-07 -1.0211e+07) (-1.38778e-06 -1.249e-06 -1.02103e+07) (-6.2797e-06 -6.245e-06 -1.021e+07) (-2.77903e-05 -2.77556e-05 -1.02092e+07) (-6.7845e-05 -6.79144e-05 -1.02083e+07) (-0.000175172 -0.000175259 -1.02067e+07) (-0.000357284 -0.000357162 -1.02055e+07) (-0.000698122 -0.000698087 -1.02037e+07) (-0.00144531 -0.00144543 -1.02027e+07) (-0.00154735 -0.00154737 -1.02011e+07) (7.24247e-07 6.98226e-07 -1.02009e+07)
3200          (1.38778e-07 1.38778e-07 -1.0211e+07) (-1.38778e-06 -1.249e-06 -1.02103e+07) (-6.2797e-06 -6.245e-06 -1.021e+07) (-2.77903e-05 -2.77556e-05 -1.02092e+07) (-6.7845e-05 -6.79144e-05 -1.02083e+07) (-0.000175172 -0.000175259 -1.02067e+07) (-0.000357284 -0.000357162 -1.02055e+07) (-0.000698122 -0.000698087 -1.02037e+07) (-0.00144531 -0.00144543 -1.02027e+07) (-0.00154735 -0.00154737 -1.02011e+07) (7.24247e-07 6.98226e-07 -1.02009e+07)
3250          (1.38778e-07 1.38778e-07 -1.0211e+07) (-1.38778e-06 -1.249e-06 -1.02103e+07) (-6.2797e-06 -6.245e-06 -1.021e+07) (-2.77903e-05 -2.77556e-05 -1.02092e+07) (-6.7845e-05 -6.79144e-05 -1.02083e+07) (-0.000175172 -0.000175259 -1.02067e+07) (-0.000357284 -0.000357162 -1.02055e+07) (-0.000698122 -0.000698087 -1.02037e+07) (-0.00144531 -0.00144543 -1.02027e+07) (-0.00154735 -0.00154737 -1.02011e+07) (7.24247e-07 6.98226e-07 -1.02009e+07)
3300          (1.38778e-07 1.38778e-07 -1.0211e+07) (-1.38778e-06 -1.249e-06 -1.02103e+07) (-6.2797e-06 -6.245e-06 -1.021e+07) (-2.77903e-05 -2.77556e-05 -1.02092e+07) (-6.7845e-05 -6.79144e-05 -1.02083e+07) (-0.000175172 -0.000175259 -1.02067e+07) (-0.000357284 -0.000357162 -1.02055e+07) (-0.000698122 -0.000698087 -1.02037e+07) (-0.00144531 -0.00144543 -1.02027e+07) (-0.00154735 -0.00154737 -1.02011e+07) (7.24247e-07 6.98226e-07 -1.02009e+07)