# Probe 0 (0.0015 0.0015 0)
# Probe 1 (0.0015 0.0015 0.002)
# Probe 2 (0.0015 0.0015 0.004)
# Probe 3 (0.0015 0.0015 0.006)
# Probe 4 (0.0015 0.0015 0.008)
# Probe 5 (0.0015 0.0015 0.01)
# Probe 6 (0.0015 0.0015 0.012)
# Probe 7 (0.0015 0.0015 0.014)
# Probe 8 (0.0015 0.0015 0.016)
# Probe 9 (0.0015 0.0015 0.018)
# Probe 10 (0.0015 0.0015 0.02)
# Time        0             1             2             3             4             5             6             7             8             9             10           
50            (4.74372e-07 3.98868e-06 2.07463e+11) (1.175e-05 1.795e-06 1.9057e+11) (6.56386e-06 5.84395e-06 1.51911e+11) (4.25766e-06 3.85139e-06 1.06143e+11) (4.54339e-06 -4.92373e-07 6.73939e+10) (2.41148e-06 -1.11944e-06 4.24971e+10) (-1.00068e-06 3.1164e-07 3.12966e+10) (-1.61799e-06 -5.16225e-07 3.14732e+10) (-1.39456e-06 -1.6635e-06 4.10828e+10) (-3.76852e-06 6.98618e-07 5.85605e+10) (4.10063e-07 -1.85471e-06 8.11464e+10)
100           (3.82198e-07 2.06269e-07 1.50219e+11) (4.85628e-06 -5.4577e-06 1.45404e+11) (3.32227e-06 -3.34556e-06 1.33565e+11) (-4.63039e-06 5.24184e-06 1.164e+11) (9.51809e-07 1.5611e-07 9.63354e+10) (-3.26331e-06 4.53918e-06 7.72227e+10) (-8.3954e-07 1.9454e-06 6.28093e+10) (3.40068e-06 -2.65698e-06 5.51729e+10) (-1.31647e-06 1.6503e-06 5.43576e+10) (-1.96796e-06 1.91724e-06 5.88715e+10) (2.45028e-06 2.48318e-06 6.59684e+10)
150           (-0.000127989 0.000132126 1.27206e+11) (2.32316e-06 -7.17303e-06 1.25006e+11) (8.22088e-06 -1.16709e-05 1.19593e+11) (-1.01202e-05 8.66201e-06 1.11522e+11) (4.86262e-06 -3.98951e-06 1.01345e+11) (-9.48463e-06 1.25087e-05 9.01335e+10) (-7.44883e-07 5.09892e-06 7.9423e+10) (1.14761e-05 -7.03031e-06 7.08159e+10) (-2.70771e-06 6.09977e-06 6.53942e+10) (-4.85067e-06 6.51109e-06 6.33589e+10) (5.44114e-05 4.33536e-06 6.38434e+10)
200           (2.58565e-07 2.74947e-07 1.1531e+11) (-4.05542e-07 -3.84091e-07 1.14101e+11) (-2.18733e-06 -2.22364e-06 1.11107e+11) (-3.89402e-06 -3.84953e-06 1.06598e+11) (-5.16882e-06 -5.22083e-06 1.00723e+11) (-6.03635e-06 -5.94424e-06 9.38305e+10) (-6.12832e-06 -6.10354e-06 8.64898e+10) (-5.49071e-06 -5.51724e-06 7.94435e+10) (-4.28397e-06 -4.25509e-06 7.34608e+10) (-2.7337e-06 -2.69787e-06 6.91651e+10) (-2.2165e-06 -2.16338e-06 6.68542e+10)
250           (-2.32087e-09 1.96512e-09 1.08238e+11) (-1.60201e-06 -1.5993e-06 1.07488e+11) (-1.65173e-06 -1.65339e-06 1.05623e+11) (-1.54213e-06 -1.54028e-06 1.02794e+11) (-1.29556e-06 -1.29128e-06 9.90343e+10) (-9.17057e-07 -9.22521e-07 9.44791e+10) (-4.39539e-07 -4.50285e-07 8.93667e+10) (4.56262e-08 4.25854e-08 8.40204e+10) (4.78276e-07 4.82025e-07 7.89003e+10) (7.62116e-07 7.84503e-07 7.45188e+10) (-5.74437e-08 -6.90162e-08 7.14665e+10)
300           (-5.0822e-11 -4.23516e-10 1.03617e+11) (1.32369e-06 1.32393e-06 1.03118e+11) (8.72258e-07 8.72105e-07 1.01857e+11) (3.04697e-07 3.04587e-07 9.99404e+10) (-3.21483e-07 -3.21432e-07 9.73749e+10) (-9.14025e-07 -9.13847e-07 9.42007e+10) (-1.505e-06 -1.50502e-06 9.05449e+10) (-2.01563e-06 -2.01559e-06 8.65822e+10) (-2.36179e-06 -2.36179e-06 8.25648e+10) (-2.5046e-06 -2.50428e-06 7.88705e+10) (-6.4798e-10 -1.22396e-09 7.60478e+10)
350           (-5.0822e-11 -5.59042e-10 1.00414e+11) (1.39418e-06 1.39407e-06 1.00061e+11) (1.119e-06 1.11903e-06 9.9175e+10) (7.23073e-07 7.23056e-07 9.78128e+10) (2.20085e-07 2.2022e-07 9.59934e+10) (-3.08913e-07 -3.08837e-07 9.37189e+10) (-8.57143e-07 -8.5709e-07 9.10705e+10) (-1.42572e-06 -1.42568e-06 8.8146e+10) (-1.90728e-06 -1.90734e-06 8.51151e+10) (-2.28723e-06 -2.28724e-06 8.22335e+10) (2.98791e-09 2.93709e-09 7.99406e+10)
400           (5.6243e-09 -5.98005e-09 9.8114e+10) (7.86646e-06 7.86188e-06 9.78646e+10) (8.1953e-06 8.19288e-06 9.72157e+10) (7.87273e-06 7.87993e-06 9.62331e+10) (6.91421e-06 6.9139e-06 9.49182e+10) (5.48688e-06 5.48838e-06 9.32664e+10) (3.43349e-06 3.43389e-06 9.13284e+10) (7.7682e-07 7.78404e-07 8.91866e+10) (-2.26947e-06 -2.26752e-06 8.69386e+10) (-5.54688e-06 -5.54501e-06 8.47715e+10) (5.93135e-09 6.49251e-09 8.3016e+10)
450           (3.38813e-11 8.47033e-11 9.64406e+10) (-2.47708e-06 -2.47704e-06 9.62518e+10) (-1.94159e-06 -1.9416e-06 9.5787e+10) (-1.37088e-06 -1.37101e-06 9.50635e+10) (-5.64268e-07 -5.64243e-07 9.41058e+10) (3.12538e-07 3.1247e-07 9.29011e+10) (1.20377e-06 1.20378e-06 9.14807e+10) (2.21083e-06 2.21078e-06 8.99164e+10) (3.16141e-06 3.16143e-06 8.82636e+10) (3.98876e-06 3.98875e-06 8.66609e+10) (-1.63054e-10 -1.77877e-10 8.53565e+10)
500           (3.55754e-10 -3.55754e-10 9.5209e+10) (1.3131e-06 1.31284e-06 9.50807e+10) (1.38961e-06 1.38866e-06 9.47282e+10) (1.30178e-06 1.30284e-06 9.42073e+10) (1.05522e-06 1.0576e-06 9.3503e+10) (8.00988e-07 8.02055e-07 9.26208e+10) (4.42283e-07 4.43327e-07 9.15833e+10) (-5.15187e-08 -5.03286e-08 9.04369e+10) (-5.78968e-07 -5.78405e-07 8.92319e+10) (-1.13751e-06 -1.13755e-06 8.80567e+10) (2.96462e-11 -8.25857e-11 8.70995e+10)
550           (-2.71051e-10 -2.20229e-10 9.43081e+10) (2.84557e-06 2.84556e-06 9.42121e+10) (2.76495e-06 2.76497e-06 9.39561e+10) (2.31895e-06 2.31893e-06 9.35726e+10) (1.38666e-06 1.38668e-06 9.30581e+10) (7.36783e-07 7.36766e-07 9.24132e+10) (-3.0491e-07 -3.04925e-07 9.16562e+10) (-1.41934e-06 -1.41933e-06 9.08205e+10) (-2.58766e-06 -2.58766e-06 8.99382e+10) (-3.75664e-06 -3.75667e-06 8.90866e+10) (1.16615e-08 1.16213e-08 8.83851e+10)
600           (-1.81265e-09 1.4569e-09 9.36462e+10) (9.80661e-07 9.79987e-07 9.35759e+10) (1.03275e-06 1.03126e-06 9.3388e+10) (9.93353e-07 9.93353e-07 9.31069e+10) (7.68242e-07 7.70071e-07 9.27334e+10) (5.88298e-07 5.90255e-07 9.22625e+10) (2.97779e-07 2.98518e-07 9.17098e+10) (-5.01591e-08 -5.06165e-08 9.1102e+10) (-4.6193e-07 -4.61968e-07 9.04628e+10) (-8.58672e-07 -8.5874e-07 8.98386e+10) (1.99265e-09 1.35737e-09 8.9329e+10)
650           (-9.65618e-10 -1.05032e-09 9.31626e+10) (-5.98725e-06 -5.98721e-06 9.31139e+10) (-7.59716e-06 -7.59711e-06 9.29772e+10) (-6.03622e-06 -6.03622e-06 9.27654e+10) (-4.58022e-06 -4.58014e-06 9.24978e+10) (-3.50089e-06 -3.50085e-06 9.21492e+10) (-1.74456e-06 -1.74453e-06 9.17501e+10) (9.23357e-07 9.23332e-07 9.13047e+10) (3.46497e-06 3.46497e-06 9.08389e+10) (6.49132e-06 6.49134e-06 9.03855e+10) (3.41333e-08 3.41312e-08 9.0016e+10)
700           (6.77626e-10 1.06726e-09 9.28116e+10) (-4.967e-08 -4.98183e-08 9.27721e+10) (-5.90213e-08 -5.9089e-08 9.26737e+10) (-4.81248e-08 -4.81672e-08 9.25235e+10) (-2.41145e-08 -2.42935e-08 9.2322e+10) (-1.1562e-08 -1.17483e-08 9.20739e+10) (1.17531e-08 1.17634e-08 9.17771e+10) (4.05032e-08 4.0554e-08 9.14564e+10) (7.1282e-08 7.13921e-08 9.11174e+10) (9.88178e-08 9.88941e-08 9.07882e+10) (-3.17743e-08 -3.15054e-08 9.05191e+10)
750           (-8.80914e-10 8.97855e-10 9.25529e+10) (7.01106e-07 7.0233e-07 9.25272e+10) (7.18928e-07 7.19639e-07 9.24563e+10) (6.56471e-07 6.57428e-07 9.23399e+10) (7.26035e-07 7.27626e-07 9.21994e+10) (7.25433e-07 7.26441e-07 9.20124e+10) (3.70489e-07 3.7099e-07 9.17977e+10) (3.9037e-07 3.91044e-07 9.15653e+10) (8.41442e-08 8.48091e-08 9.13235e+10) (-2.4866e-07 -2.4855e-07 9.10782e+10) (1.45054e-09 1.05667e-09 9.08856e+10)
800           (0 -8.47033e-11 9.23656e+10) (1.07849e-06 1.07846e-06 9.23472e+10) (8.61856e-07 8.61856e-07 9.22918e+10) (1.15927e-06 1.15929e-06 9.22115e+10) (5.81362e-07 5.81352e-07 9.21069e+10) (1.97511e-07 1.9752e-07 9.19741e+10) (1.94263e-07 1.94248e-07 9.18141e+10) (-5.31354e-07 -5.31375e-07 9.1646e+10) (-7.37982e-07 -7.37969e-07 9.14669e+10) (-1.02943e-06 -1.02944e-06 9.12899e+10) (2.73168e-09 2.72533e-09 9.11505e+10)
850           (-1.18585e-10 -5.0822e-11 9.22285e+10) (3.04807e-06 3.0481e-06 9.22175e+10) (1.50411e-06 1.50418e-06 9.21743e+10) (1.61646e-06 1.61641e-06 9.21167e+10) (1.90331e-06 1.90322e-06 9.20438e+10) (9.53039e-07 9.53065e-07 9.19419e+10) (1.95254e-07 1.95341e-07 9.18272e+10) (2.90814e-07 2.90831e-07 9.17025e+10) (-1.12017e-06 -1.12014e-06 9.15721e+10) (-1.62082e-06 -1.62086e-06 9.14434e+10) (6.03511e-10 5.23043e-10 9.13427e+10)
900           (-1.21973e-09 -5.59042e-10 9.21341e+10) (-1.76158e-05 -1.76152e-05 9.21177e+10) (-3.9917e-05 -3.99164e-05 9.20947e+10) (-1.9802e-05 -1.98029e-05 9.20492e+10) (-6.28747e-06 -6.2887e-06 9.19927e+10) (-8.4781e-06 -8.47967e-06 9.19242e+10) (4.85931e-06 4.85928e-06 9.18361e+10) (1.31175e-05 1.31177e-05 9.1743e+10) (1.54742e-05 1.54741e-05 9.16491e+10) (3.18558e-05 3.18554e-05 9.15538e+10) (5.22789e-08 5.18808e-08 9.14815e+10)
950           (-4.23516e-10 7.45389e-10 9.20625e+10) (-3.42017e-06 -3.42013e-06 9.20579e+10) (-1.87183e-05 -1.87187e-05 9.20333e+10) (-5.04951e-06 -5.04969e-06 9.20023e+10) (-6.94607e-06 -6.94701e-06 9.19563e+10) (-2.0546e-06 -2.05612e-06 9.19027e+10) (-2.46987e-06 -2.46973e-06 9.18384e+10) (6.34142e-06 6.34118e-06 9.17748e+10) (3.62381e-06 3.62331e-06 9.17026e+10) (1.30595e-05 1.30588e-05 9.16391e+10) (2.68975e-08 2.60886e-08 9.15793e+10)
1000          (-5.94617e-09 4.37069e-09 9.20113e+10) (-8.3252e-06 -8.32309e-06 9.20084e+10) (-5.08081e-06 -5.08147e-06 9.19892e+10) (-8.16114e-06 -8.15873e-06 9.19661e+10) (-7.85305e-06 -7.85304e-06 9.19306e+10) (-9.29193e-06 -9.29449e-06 9.18927e+10) (-2.97233e-06 -2.9738e-06 9.18403e+10) (-3.93448e-06 -3.93422e-06 9.17947e+10) (4.57616e-06 4.57697e-06 9.1739e+10) (4.46013e-06 4.46007e-06 9.16935e+10) (1.6695e-08 1.65362e-08 9.1651e+10)
1050          (-1.69407e-09 1.49078e-09 9.19771e+10) (-4.36007e-06 -4.35632e-06 9.19708e+10) (-7.58057e-06 -7.58054e-06 9.19583e+10) (-1.06829e-06 -1.06727e-06 9.19399e+10) (-7.21475e-06 -7.21504e-06 9.19127e+10) (-2.57141e-06 -2.57239e-06 9.18844e+10) (-1.25407e-06 -1.25414e-06 9.1848e+10) (-2.85066e-06 -2.85115e-06 9.18093e+10) (2.60799e-06 2.60707e-06 9.1773e+10) (2.65681e-06 2.65631e-06 9.17341e+10) (1.05985e-08 9.635e-09 9.1705e+10)
1100          (3.47284e-09 -3.52366e-09 9.1951e+10) (-3.69239e-07 -3.70996e-07 9.19475e+10) (-1.74116e-07 -1.74438e-07 9.19374e+10) (-3.19294e-07 -3.18964e-07 9.19236e+10) (1.21584e-07 1.22362e-07 9.19021e+10) (-5.07364e-07 -5.06593e-07 9.1881e+10) (3.39377e-07 3.39625e-07 9.18467e+10) (-3.86444e-07 -3.8677e-07 9.18226e+10) (6.43779e-07 6.43258e-07 9.17866e+10) (2.13485e-07 2.13091e-07 9.17651e+10) (1.63477e-09 1.4569e-09 9.17387e+10)
1150          (-8.47033e-11 2.5411e-10 9.19343e+10) (4.06157e-06 4.06144e-06 9.19297e+10) (6.01204e-06 6.01231e-06 9.19202e+10) (7.96138e-06 7.96141e-06 9.19086e+10) (8.57158e-06 8.57157e-06 9.18926e+10) (1.00395e-05 1.00395e-05 9.18736e+10) (9.13606e-06 9.13622e-06 9.18517e+10) (9.29364e-06 9.29369e-06 9.18263e+10) (7.33474e-06 7.33478e-06 9.18066e+10) (5.08597e-06 5.08595e-06 9.17808e+10) (6.3951e-10 6.20452e-10 9.17666e+10)
1200          (3.21873e-10 -1.35525e-10 9.19221e+10) (2.15273e-06 2.15284e-06 9.192e+10) (3.81705e-06 3.81712e-06 9.19119e+10) (4.53414e-06 4.53426e-06 9.19016e+10) (6.25733e-06 6.25717e-06 9.18866e+10) (5.97218e-06 5.97197e-06 9.18719e+10) (7.2693e-06 7.26919e-06 9.1848e+10) (6.00705e-06 6.00693e-06 9.18314e+10) (5.37364e-06 5.37362e-06 9.18098e+10) (3.83051e-06 3.83046e-06 9.17977e+10) (-8.4068e-10 -9.5503e-10 9.17827e+10)
1250          (-3.38813e-11 2.37169e-10 9.19129e+10) (1.50028e-06 1.50029e-06 9.19113e+10) (3.37709e-06 3.37698e-06 9.1902e+10) (3.71559e-06 3.71552e-06 9.18923e+10) (5.35622e-06 5.35625e-06 9.18808e+10) (5.43377e-06 5.43365e-06 9.18709e+10) (6.49183e-06 6.49176e-06 9.18492e+10) (6.32441e-06 6.32439e-06 9.18356e+10) (4.91251e-06 4.91252e-06 9.18176e+10) (4.3115e-06 4.31148e-06 9.18104e+10) (-2.75286e-10 -3.00697e-10 9.17961e+10)
1300          (-1.69407e-11 -5.0822e-11 9.19062e+10) (5.12828e-07 5.12832e-07 9.19044e+10) (6.13862e-07 6.13862e-07 9.18977e+10) (1.16109e-06 1.16109e-06 9.18891e+10) (8.51362e-07 8.51378e-07 9.18801e+10) (1.35072e-06 1.35072e-06 9.18658e+10) (9.78667e-07 9.78677e-07 9.18553e+10) (1.0981e-06 1.09809e-06 9.18353e+10) (9.46187e-07 9.46199e-07 9.18302e+10) (3.79592e-07 3.79584e-07 9.18128e+10) (2.23193e-09 2.2277e-09 9.18103e+10)
1350          (-8.47033e-11 -5.0822e-11 9.19035e+10) (9.79848e-08 9.81414e-08 9.18975e+10) (1.64341e-07 1.64358e-07 9.18946e+10) (3.82151e-07 3.82176e-07 9.18876e+10) (5.71375e-07 5.71332e-07 9.18796e+10) (1.02145e-06 1.02136e-06 9.18648e+10) (1.38537e-06 1.3855e-06 9.18522e+10) (1.84059e-06 1.84059e-06 9.18365e+10) (2.5293e-06 2.52924e-06 9.18276e+10) (1.77996e-06 1.77991e-06 9.18132e+10) (-1.41878e-10 -1.88465e-10 9.18114e+10)
1400          (-6.77626e-11 -6.77626e-11 9.19035e+10) (6.43745e-10 5.80186e-10 9.18975e+10) (2.81215e-09 2.81215e-09 9.18946e+10) (1.24974e-08 1.24889e-08 9.18876e+10) (3.05192e-08 3.05264e-08 9.18796e+10) (7.87741e-08 7.88079e-08 9.18648e+10) (1.6067e-07 1.60621e-07 9.18522e+10) (3.13959e-07 3.13938e-07 9.18365e+10) (6.49983e-07 6.50034e-07 9.18275e+10) (6.95866e-07 6.95883e-07 9.18132e+10) (-3.2399e-10 -3.13402e-10 9.18113e+10)
1450          (-6.77626e-11 -6.77626e-11 9.19035e+10) (6.43745e-10 5.80186e-10 9.18975e+10) (2.81215e-09 2.81215e-09 9.18946e+10) (1.24974e-08 1.24889e-08 9.18876e+10) (3.05192e-08 3.05264e-08 9.18796e+10) (7.87741e-08 7.88079e-08 9.18648e+10) (1.6067e-07 1.60621e-07 9.18522e+10) (3.13959e-07 3.13938e-07 9.18365e+10) (6.49983e-07 6.50034e-07 9.18275e+10) (6.95866e-07 6.95883e-07 9.18132e+10) (-3.2399e-10 -3.13402e-10 9.18113e+10)
1500          (-6.77626e-11 -6.77626e-11 9.19035e+10) (6.43745e-10 5.80186e-10 9.18975e+10) (2.81215e-09 2.81215e-09 9.18946e+10) (1.24974e-08 1.24889e-08 9.18876e+10) (3.05192e-08 3.05264e-08 9.18796e+10) (7.87741e-08 7.88079e-08 9.18648e+10) (1.6067e-07 1.60621e-07 9.18522e+10) (3.13959e-07 3.13938e-07 9.18365e+10) (6.49983e-07 6.50034e-07 9.18275e+10) (6.95866e-07 6.95883e-07 9.18132e+10) (-3.2399e-10 -3.13402e-10 9.18113e+10)
1550          (-6.77626e-11 -6.77626e-11 9.19035e+10) (6.43745e-10 5.80186e-10 9.18975e+10) (2.81215e-09 2.81215e-09 9.18946e+10) (1.24974e-08 1.24889e-08 9.18876e+10) (3.05192e-08 3.05264e-08 9.18796e+10) (7.87741e-08 7.88079e-08 9.18648e+10) (1.6067e-07 1.60621e-07 9.18522e+10) (3.13959e-07 3.13938e-07 9.18365e+10) (6.49983e-07 6.50034e-07 9.18275e+10) (6.95866e-07 6.95883e-07 9.18132e+10) (-3.2399e-10 -3.13402e-10 9.18113e+10)
1600          (-6.77626e-11 -6.77626e-11 9.19035e+10) (6.43745e-10 5.80186e-10 9.18975e+10) (2.81215e-09 2.81215e-09 9.18946e+10) (1.24974e-08 1.24889e-08 9.18876e+10) (3.05192e-08 3.05264e-08 9.18796e+10) (7.87741e-08 7.88079e-08 9.18648e+10) (1.6067e-07 1.60621e-07 9.18522e+10) (3.13959e-07 3.13938e-07 9.18365e+10) (6.49983e-07 6.50034e-07 9.18275e+10) (6.95866e-07 6.95883e-07 9.18132e+10) (-3.2399e-10 -3.13402e-10 9.18113e+10)
1650          (-6.77626e-11 -6.77626e-11 9.19035e+10) (6.43745e-10 5.80186e-10 9.18975e+10) (2.81215e-09 2.81215e-09 9.18946e+10) (1.24974e-08 1.24889e-08 9.18876e+10) (3.05192e-08 3.05264e-08 9.18796e+10) (7.87741e-08 7.88079e-08 9.18648e+10) (1.6067e-07 1.60621e-07 9.18522e+10) (3.13959e-07 3.13938e-07 9.18365e+10) (6.49983e-07 6.50034e-07 9.18275e+10) (6.95866e-07 6.95883e-07 9.18132e+10) (-3.2399e-10 -3.13402e-10 9.18113e+10)
1700          (-6.77626e-11 -6.77626e-11 9.19035e+10) (6.43745e-10 5.80186e-10 9.18975e+10) (2.81215e-09 2.81215e-09 9.18946e+10) (1.24974e-08 1.24889e-08 9.18876e+10) (3.05192e-08 3.05264e-08 9.18796e+10) (7.87741e-08 7.88079e-08 9.18648e+10) (1.6067e-07 1.60621e-07 9.18522e+10) (3.13959e-07 3.13938e-07 9.18365e+10) (6.49983e-07 6.50034e-07 9.18275e+10) (6.95866e-07 6.95883e-07 9.18132e+10) (-3.2399e-10 -3.13402e-10 9.18113e+10)
1750          (-6.77626e-11 -6.77626e-11 9.19035e+10) (6.43745e-10 5.80186e-10 9.18975e+10) (2.81215e-09 2.81215e-09 9.18946e+10) (1.24974e-08 1.24889e-08 9.18876e+10) (3.05192e-08 3.05264e-08 9.18796e+10) (7.87741e-08 7.88079e-08 9.18648e+10) (1.6067e-07 1.60621e-07 9.18522e+10) (3.13959e-07 3.13938e-07 9.18365e+10) (6.49983e-07 6.50034e-07 9.18275e+10) (6.95866e-07 6.95883e-07 9.18132e+10) (-3.2399e-10 -3.13402e-10 9.18113e+10)
1800          (-6.77626e-11 -6.77626e-11 9.19035e+10) (6.43745e-10 5.80186e-10 9.18975e+10) (2.81215e-09 2.81215e-09 9.18946e+10) (1.24974e-08 1.24889e-08 9.18876e+10) (3.05192e-08 3.05264e-08 9.18796e+10) (7.87741e-08 7.88079e-08 9.18648e+10) (1.6067e-07 1.60621e-07 9.18522e+10) (3.13959e-07 3.13938e-07 9.18365e+10) (6.49983e-07 6.50034e-07 9.18275e+10) (6.95866e-07 6.95883e-07 9.18132e+10) (-3.2399e-10 -3.13402e-10 9.18113e+10)
1850          (-6.77626e-11 -6.77626e-11 9.19035e+10) (6.43745e-10 5.80186e-10 9.18975e+10) (2.81215e-09 2.81215e-09 9.18946e+10) (1.24974e-08 1.24889e-08 9.18876e+10) (3.05192e-08 3.05264e-08 9.18796e+10) (7.87741e-08 7.88079e-08 9.18648e+10) (1.6067e-07 1.60621e-07 9.18522e+10) (3.13959e-07 3.13938e-07 9.18365e+10) (6.49983e-07 6.50034e-07 9.18275e+10) (6.95866e-07 6.95883e-07 9.18132e+10) (-3.2399e-10 -3.13402e-10 9.18113e+10)
1900          (-6.77626e-11 -6.77626e-11 9.19035e+10) (6.43745e-10 5.80186e-10 9.18975e+10) (2.81215e-09 2.81215e-09 9.18946e+10) (1.24974e-08 1.24889e-08 9.18876e+10) (3.05192e-08 3.05264e-08 9.18796e+10) (7.87741e-08 7.88079e-08 9.18648e+10) (1.6067e-07 1.60621e-07 9.18522e+10) (3.13959e-07 3.13938e-07 9.18365e+10) (6.49983e-07 6.50034e-07 9.18275e+10) (6.95866e-07 6.95883e-07 9.18132e+10) (-3.2399e-10 -3.13402e-10 9.18113e+10)
1950          (-6.77626e-11 -6.77626e-11 9.19035e+10) (6.43745e-10 5.80186e-10 9.18975e+10) (2.81215e-09 2.81215e-09 9.18946e+10) (1.24974e-08 1.24889e-08 9.18876e+10) (3.05192e-08 3.05264e-08 9.18796e+10) (7.87741e-08 7.88079e-08 9.18648e+10) (1.6067e-07 1.60621e-07 9.18522e+10) (3.13959e-07 3.13938e-07 9.18365e+10) (6.49983e-07 6.50034e-07 9.18275e+10) (6.95866e-07 6.95883e-07 9.18132e+10) (-3.2399e-10 -3.13402e-10 9.18113e+10)
2000          (-6.77626e-11 -6.77626e-11 9.19035e+10) (6.43745e-10 5.80186e-10 9.18975e+10) (2.81215e-09 2.81215e-09 9.18946e+10) (1.24974e-08 1.24889e-08 9.18876e+10) (3.05192e-08 3.05264e-08 9.18796e+10) (7.87741e-08 7.88079e-08 9.18648e+10) (1.6067e-07 1.60621e-07 9.18522e+10) (3.13959e-07 3.13938e-07 9.18365e+10) (6.49983e-07 6.50034e-07 9.18275e+10) (6.95866e-07 6.95883e-07 9.18132e+10) (-3.2399e-10 -3.13402e-10 9.18113e+10)
2050          (-6.77626e-11 -6.77626e-11 9.19035e+10) (6.43745e-10 5.80186e-10 9.18975e+10) (2.81215e-09 2.81215e-09 9.18946e+10) (1.24974e-08 1.24889e-08 9.18876e+10) (3.05192e-08 3.05264e-08 9.18796e+10) (7.87741e-08 7.88079e-08 9.18648e+10) (1.6067e-07 1.60621e-07 9.18522e+10) (3.13959e-07 3.13938e-07 9.18365e+10) (6.49983e-07 6.50034e-07 9.18275e+10) (6.95866e-07 6.95883e-07 9.18132e+10) (-3.2399e-10 -3.13402e-10 9.18113e+10)
2100          (-6.77626e-11 -6.77626e-11 9.19035e+10) (6.43745e-10 5.80186e-10 9.18975e+10) (2.81215e-09 2.81215e-09 9.18946e+10) (1.24974e-08 1.24889e-08 9.18876e+10) (3.05192e-08 3.05264e-08 9.18796e+10) (7.87741e-08 7.88079e-08 9.18648e+10) (1.6067e-07 1.60621e-07 9.18522e+10) (3.13959e-07 3.13938e-07 9.18365e+10) (6.49983e-07 6.50034e-07 9.18275e+10) (6.95866e-07 6.95883e-07 9.18132e+10) (-3.2399e-10 -3.13402e-10 9.18113e+10)
2150          (-6.77626e-11 -6.77626e-11 9.19035e+10) (6.43745e-10 5.80186e-10 9.18975e+10) (2.81215e-09 2.81215e-09 9.18946e+10) (1.24974e-08 1.24889e-08 9.18876e+10) (3.05192e-08 3.05264e-08 9.18796e+10) (7.87741e-08 7.88079e-08 9.18648e+10) (1.6067e-07 1.60621e-07 9.18522e+10) (3.13959e-07 3.13938e-07 9.18365e+10) (6.49983e-07 6.50034e-07 9.18275e+10) (6.95866e-07 6.95883e-07 9.18132e+10) (-3.2399e-10 -3.13402e-10 9.18113e+10)
2200          (-6.77626e-11 -6.77626e-11 9.19035e+10) (6.43745e-10 5.80186e-10 9.18975e+10) (2.81215e-09 2.81215e-09 9.18946e+10) (1.24974e-08 1.24889e-08 9.18876e+10) (3.05192e-08 3.05264e-08 9.18796e+10) (7.87741e-08 7.88079e-08 9.18648e+10) (1.6067e-07 1.60621e-07 9.18522e+10) (3.13959e-07 3.13938e-07 9.18365e+10) (6.49983e-07 6.50034e-07 9.18275e+10) (6.95866e-07 6.95883e-07 9.18132e+10) (-3.2399e-10 -3.13402e-10 9.18113e+10)
2250          (-6.77626e-11 -6.77626e-11 9.19035e+10) (6.43745e-10 5.80186e-10 9.18975e+10) (2.81215e-09 2.81215e-09 9.18946e+10) (1.24974e-08 1.24889e-08 9.18876e+10) (3.05192e-08 3.05264e-08 9.18796e+10) (7.87741e-08 7.88079e-08 9.18648e+10) (1.6067e-07 1.60621e-07 9.18522e+10) (3.13959e-07 3.13938e-07 9.18365e+10) (6.49983e-07 6.50034e-07 9.18275e+10) (6.95866e-07 6.95883e-07 9.18132e+10) (-3.2399e-10 -3.13402e-10 9.18113e+10)
2300          (-6.77626e-11 -6.77626e-11 9.19035e+10) (6.43745e-10 5.80186e-10 9.18975e+10) (2.81215e-09 2.81215e-09 9.18946e+10) (1.24974e-08 1.24889e-08 9.18876e+10) (3.05192e-08 3.05264e-08 9.18796e+10) (7.87741e-08 7.88079e-08 9.18648e+10) (1.6067e-07 1.60621e-07 9.18522e+10) (3.13959e-07 3.13938e-07 9.18365e+10) (6.49983e-07 6.50034e-07 9.18275e+10) (6.95866e-07 6.95883e-07 9.18132e+10) (-3.2399e-10 -3.13402e-10 9.18113e+10)
2350          (-6.77626e-11 -6.77626e-11 9.19035e+10) (6.43745e-10 5.80186e-10 9.18975e+10) (2.81215e-09 2.81215e-09 9.18946e+10) (1.24974e-08 1.24889e-08 9.18876e+10) (3.05192e-08 3.05264e-08 9.18796e+10) (7.87741e-08 7.88079e-08 9.18648e+10) (1.6067e-07 1.60621e-07 9.18522e+10) (3.13959e-07 3.13938e-07 9.18365e+10) (6.49983e-07 6.50034e-07 9.18275e+10) (6.95866e-07 6.95883e-07 9.18132e+10) (-3.2399e-10 -3.13402e-10 9.18113e+10)
2400          (-6.77626e-11 -6.77626e-11 9.19035e+10) (6.43745e-10 5.80186e-10 9.18975e+10) (2.81215e-09 2.81215e-09 9.18946e+10) (1.24974e-08 1.24889e-08 9.18876e+10) (3.05192e-08 3.05264e-08 9.18796e+10) (7.87741e-08 7.88079e-08 9.18648e+10) (1.6067e-07 1.60621e-07 9.18522e+10) (3.13959e-07 3.13938e-07 9.18365e+10) (6.49983e-07 6.50034e-07 9.18275e+10) (6.95866e-07 6.95883e-07 9.18132e+10) (-3.2399e-10 -3.13402e-10 9.18113e+10)
2450          (-6.77626e-11 -6.77626e-11 9.19035e+10) (6.43745e-10 5.80186e-10 9.18975e+10) (2.81215e-09 2.81215e-09 9.18946e+10) (1.24974e-08 1.24889e-08 9.18876e+10) (3.05192e-08 3.05264e-08 9.18796e+10) (7.87741e-08 7.88079e-08 9.18648e+10) (1.6067e-07 1.60621e-07 9.18522e+10) (3.13959e-07 3.13938e-07 9.18365e+10) (6.49983e-07 6.50034e-07 9.18275e+10) (6.95866e-07 6.95883e-07 9.18132e+10) (-3.2399e-10 -3.13402e-10 9.18113e+10)
2500          (-6.77626e-11 -6.77626e-11 9.19035e+10) (6.43745e-10 5.80186e-10 9.18975e+10) (2.81215e-09 2.81215e-09 9.18946e+10) (1.24974e-08 1.24889e-08 9.18876e+10) (3.05192e-08 3.05264e-08 9.18796e+10) (7.87741e-08 7.88079e-08 9.18648e+10) (1.6067e-07 1.60621e-07 9.18522e+10) (3.13959e-07 3.13938e-07 9.18365e+10) (6.49983e-07 6.50034e-07 9.18275e+10) (6.95866e-07 6.95883e-07 9.18132e+10) (-3.2399e-10 -3.13402e-10 9.18113e+10)
2550          (-6.77626e-11 -6.77626e-11 9.19035e+10) (6.43745e-10 5.80186e-10 9.18975e+10) (2.81215e-09 2.81215e-09 9.18946e+10) (1.24974e-08 1.24889e-08 9.18876e+10) (3.05192e-08 3.05264e-08 9.18796e+10) (7.87741e-08 7.88079e-08 9.18648e+10) (1.6067e-07 1.60621e-07 9.18522e+10) (3.13959e-07 3.13938e-07 9.18365e+10) (6.49983e-07 6.50034e-07 9.18275e+10) (6.95866e-07 6.95883e-07 9.18132e+10) (-3.2399e-10 -3.13402e-10 9.18113e+10)
2600          (-6.77626e-11 -6.77626e-11 9.19035e+10) (6.43745e-10 5.80186e-10 9.18975e+10) (2.81215e-09 2.81215e-09 9.18946e+10) (1.24974e-08 1.24889e-08 9.18876e+10) (3.05192e-08 3.05264e-08 9.18796e+10) (7.87741e-08 7.88079e-08 9.18648e+10) (1.6067e-07 1.60621e-07 9.18522e+10) (3.13959e-07 3.13938e-07 9.18365e+10) (6.49983e-07 6.50034e-07 9.18275e+10) (6.95866e-07 6.95883e-07 9.18132e+10) (-3.2399e-10 -3.13402e-10 9.18113e+10)
2650          (-6.77626e-11 -6.77626e-11 9.19035e+10) (6.43745e-10 5.80186e-10 9.18975e+10) (2.81215e-09 2.81215e-09 9.18946e+10) (1.24974e-08 1.24889e-08 9.18876e+10) (3.05192e-08 3.05264e-08 9.18796e+10) (7.87741e-08 7.88079e-08 9.18648e+10) (1.6067e-07 1.60621e-07 9.18522e+10) (3.13959e-07 3.13938e-07 9.18365e+10) (6.49983e-07 6.50034e-07 9.18275e+10) (6.95866e-07 6.95883e-07 9.18132e+10) (-3.2399e-10 -3.13402e-10 9.18113e+10)
2700          (-6.77626e-11 -6.77626e-11 9.19035e+10) (6.43745e-10 5.80186e-10 9.18975e+10) (2.81215e-09 2.81215e-09 9.18946e+10) (1.24974e-08 1.24889e-08 9.18876e+10) (3.05192e-08 3.05264e-08 9.18796e+10) (7.87741e-08 7.88079e-08 9.18648e+10) (1.6067e-07 1.60621e-07 9.18522e+10) (3.13959e-07 3.13938e-07 9.18365e+10) (6.49983e-07 6.50034e-07 9.18275e+10) (6.95866e-07 6.95883e-07 9.18132e+10) (-3.2399e-10 -3.13402e-10 9.18113e+10)
2750          (-6.77626e-11 -6.77626e-11 9.19035e+10) (6.43745e-10 5.80186e-10 9.18975e+10) (2.81215e-09 2.81215e-09 9.18946e+10) (1.24974e-08 1.24889e-08 9.18876e+10) (3.05192e-08 3.05264e-08 9.18796e+10) (7.87741e-08 7.88079e-08 9.18648e+10) (1.6067e-07 1.60621e-07 9.18522e+10) (3.13959e-07 3.13938e-07 9.18365e+10) (6.49983e-07 6.50034e-07 9.18275e+10) (6.95866e-07 6.95883e-07 9.18132e+10) (-3.2399e-10 -3.13402e-10 9.18113e+10)
2800          (-6.77626e-11 -6.77626e-11 9.19035e+10) (6.43745e-10 5.80186e-10 9.18975e+10) (2.81215e-09 2.81215e-09 9.18946e+10) (1.24974e-08 1.24889e-08 9.18876e+10) (3.05192e-08 3.05264e-08 9.18796e+10) (7.87741e-08 7.88079e-08 9.18648e+10) (1.6067e-07 1.60621e-07 9.18522e+10) (3.13959e-07 3.13938e-07 9.18365e+10) (6.49983e-07 6.50034e-07 9.18275e+10) (6.95866e-07 6.95883e-07 9.18132e+10) (-3.2399e-10 -3.13402e-10 9.18113e+10)
2850          (-6.77626e-11 -6.77626e-11 9.19035e+10) (6.43745e-10 5.80186e-10 9.18975e+10) (2.81215e-09 2.81215e-09 9.18946e+10) (1.24974e-08 1.24889e-08 9.18876e+10) (3.05192e-08 3.05264e-08 9.18796e+10) (7.87741e-08 7.88079e-08 9.18648e+10) (1.6067e-07 1.60621e-07 9.18522e+10) (3.13959e-07 3.13938e-07 9.18365e+10) (6.49983e-07 6.50034e-07 9.18275e+10) (6.95866e-07 6.95883e-07 9.18132e+10) (-3.2399e-10 -3.13402e-10 9.18113e+10)
2900          (-6.77626e-11 -6.77626e-11 9.19035e+10) (6.43745e-10 5.80186e-10 9.18975e+10) (2.81215e-09 2.81215e-09 9.18946e+10) (1.24974e-08 1.24889e-08 9.18876e+10) (3.05192e-08 3.05264e-08 9.18796e+10) (7.87741e-08 7.88079e-08 9.18648e+10) (1.6067e-07 1.60621e-07 9.18522e+10) (3.13959e-07 3.13938e-07 9.18365e+10) (6.49983e-07 6.50034e-07 9.18275e+10) (6.95866e-07 6.95883e-07 9.18132e+10) (-3.2399e-10 -3.13402e-10 9.18113e+10)
2950          (-6.77626e-11 -6.77626e-11 9.19035e+10) (6.43745e-10 5.80186e-10 9.18975e+10) (2.81215e-09 2.81215e-09 9.18946e+10) (1.24974e-08 1.24889e-08 9.18876e+10) (3.05192e-08 3.05264e-08 9.18796e+10) (7.87741e-08 7.88079e-08 9.18648e+10) (1.6067e-07 1.60621e-07 9.18522e+10) (3.13959e-07 3.13938e-07 9.18365e+10) (6.49983e-07 6.50034e-07 9.18275e+10) (6.95866e-07 6.95883e-07 9.18132e+10) (-3.2399e-10 -3.13402e-10 9.18113e+10)
3000          (-6.77626e-11 -6.77626e-11 9.19035e+10) (6.43745e-10 5.80186e-10 9.18975e+10) (2.81215e-09 2.81215e-09 9.18946e+10) (1.24974e-08 1.24889e-08 9.18876e+10) (3.05192e-08 3.05264e-08 9.18796e+10) (7.87741e-08 7.88079e-08 9.18648e+10) (1.6067e-07 1.60621e-07 9.18522e+10) (3.13959e-07 3.13938e-07 9.18365e+10) (6.49983e-07 6.50034e-07 9.18275e+10) (6.95866e-07 6.95883e-07 9.18132e+10) (-3.2399e-10 -3.13402e-10 9.18113e+10)
3050          (-6.77626e-11 -6.77626e-11 9.19035e+10) (6.43745e-10 5.80186e-10 9.18975e+10) (2.81215e-09 2.81215e-09 9.18946e+10) (1.24974e-08 1.24889e-08 9.18876e+10) (3.05192e-08 3.05264e-08 9.18796e+10) (7.87741e-08 7.88079e-08 9.18648e+10) (1.6067e-07 1.60621e-07 9.18522e+10) (3.13959e-07 3.13938e-07 9.18365e+10) (6.49983e-07 6.50034e-07 9.18275e+10) (6.95866e-07 6.95883e-07 9.18132e+10) (-3.2399e-10 -3.13402e-10 9.18113e+10)
3100          (-6.77626e-11 -6.77626e-11 9.19035e+10) (6.43745e-10 5.80186e-10 9.18975e+10) (2.81215e-09 2.81215e-09 9.18946e+10) (1.24974e-08 1.24889e-08 9.18876e+10) (3.05192e-08 3.05264e-08 9.18796e+10) (7.87741e-08 7.88079e-08 9.18648e+10) (1.6067e-07 1.60621e-07 9.18522e+10) (3.13959e-07 3.13938e-07 9.18365e+10) (6.49983e-07 6.50034e-07 9.18275e+10) (6.95866e-07 6.95883e-07 9.18132e+10) (-3.2399e-10 -3.13402e-10 9.18113e+10)
3150          (-6.77626e-11 -6.77626e-11 9.19035e+10) (6.43745e-10 5.80186e-10 9.18975e+10) (2.81215e-09 2.81215e-09 9.18946e+10) (1.24974e-08 1.24889e-08 9.18876e+10) (3.05192e-08 3.05264e-08 9.18796e+10) (7.87741e-08 7.88079e-08 9.18648e+10) (1.6067e-07 1.60621e-07 9.18522e+10) (3.13959e-07 3.13938e-07 9.18365e+10) (6.49983e-07 6.50034e-07 9.18275e+10) (6.95866e-07 6.95883e-07 9.18132e+10) (-3.2399e-10 -3.13402e-10 9.18113e+10)
3200          (-6.77626e-11 -6.77626e-11 9.19035e+10) (6.43745e-10 5.80186e-10 9.18975e+10) (2.81215e-09 2.81215e-09 9.18946e+10) (1.24974e-08 1.24889e-08 9.18876e+10) (3.05192e-08 3.05264e-08 9.18796e+10) (7.87741e-08 7.88079e-08 9.18648e+10) (1.6067e-07 1.60621e-07 9.18522e+10) (3.13959e-07 3.13938e-07 9.18365e+10) (6.49983e-07 6.50034e-07 9.18275e+10) (6.95866e-07 6.95883e-07 9.18132e+10) (-3.2399e-10 -3.13402e-10 9.18113e+10)
3250          (-6.77626e-11 -6.77626e-11 9.19035e+10) (6.43745e-10 5.80186e-10 9.18975e+10) (2.81215e-09 2.81215e-09 9.18946e+10) (1.24974e-08 1.24889e-08 9.18876e+10) (3.05192e-08 3.05264e-08 9.18796e+10) (7.87741e-08 7.88079e-08 9.18648e+10) (1.6067e-07 1.60621e-07 9.18522e+10) (3.13959e-07 3.13938e-07 9.18365e+10) (6.49983e-07 6.50034e-07 9.18275e+10) (6.95866e-07 6.95883e-07 9.18132e+10) (-3.2399e-10 -3.13402e-10 9.18113e+10)
3300          (-6.77626e-11 -6.77626e-11 9.19035e+10) (6.43745e-10 5.80186e-10 9.18975e+10) (2.81215e-09 2.81215e-09 9.18946e+10) (1.24974e-08 1.24889e-08 9.18876e+10) (3.05192e-08 3.05264e-08 9.18796e+10) (7.87741e-08 7.88079e-08 9.18648e+10) (1.6067e-07 1.60621e-07 9.18522e+10) (3.13959e-07 3.13938e-07 9.18365e+10) (6.49983e-07 6.50034e-07 9.18275e+10) (6.95866e-07 6.95883e-07 9.18132e+10) (-3.2399e-10 -3.13402e-10 9.18113e+10)
3350          (-6.77626e-11 -6.77626e-11 9.19035e+10) (6.43745e-10 5.80186e-10 9.18975e+10) (2.81215e-09 2.81215e-09 9.18946e+10) (1.24974e-08 1.24889e-08 9.18876e+10) (3.05192e-08 3.05264e-08 9.18796e+10) (7.87741e-08 7.88079e-08 9.18648e+10) (1.6067e-07 1.60621e-07 9.18522e+10) (3.13959e-07 3.13938e-07 9.18365e+10) (6.49983e-07 6.50034e-07 9.18275e+10) (6.95866e-07 6.95883e-07 9.18132e+10) (-3.2399e-10 -3.13402e-10 9.18113e+10)