# Probe 0 (0.0015 0.0015 0)
# Probe 1 (0.0015 0.0015 0.002)
# Probe 2 (0.0015 0.0015 0.004)
# Probe 3 (0.0015 0.0015 0.006)
# Probe 4 (0.0015 0.0015 0.008)
# Probe 5 (0.0015 0.0015 0.01)
# Probe 6 (0.0015 0.0015 0.012)
# Probe 7 (0.0015 0.0015 0.014)
# Probe 8 (0.0015 0.0015 0.016)
# Probe 9 (0.0015 0.0015 0.018)
# Probe 10 (0.0015 0.0015 0.02)
# Time        0             1             2             3             4             5             6             7             8             9             10           
50            (3.92166e-12 -6.91682e-13 6.95751e-11) (-1.60812e-11 2.97778e-11 2.88468e-11) (1.92603e-11 1.26274e-12 9.29518e-11) (1.2383e-12 2.22369e-11 8.3344e-11) (-2.97953e-11 -1.3075e-11 1.32372e-10) (9.74744e-12 -9.89112e-12 1.2492e-10) (2.98518e-11 2.77132e-11 1.1162e-10) (-4.07719e-11 1.61811e-11 2.67485e-11) (6.15435e-13 3.34849e-11 1.30952e-10) (-3.83754e-12 -1.78419e-12 2.41859e-10) (-6.11937e-12 -3.49397e-11 2.12366e-10)
100           (1.8522e-11 8.5814e-12 3.02035e-11) (6.13097e-12 2.76202e-11 4.04647e-11) (1.27598e-11 4.03498e-11 -1.1692e-10) (2.86667e-12 1.34548e-11 2.26159e-10) (1.46826e-11 8.44123e-12 2.37187e-10) (-1.37147e-11 2.90517e-11 3.51588e-10) (-3.56946e-12 -1.15641e-11 4.96098e-10) (2.41805e-11 2.42941e-11 5.49948e-10) (-7.03636e-12 2.89699e-11 6.69325e-10) (3.69629e-11 2.60225e-11 7.36044e-10) (4.78508e-12 5.21654e-12 9.25327e-10)
150           (-3.90291e-11 -1.48893e-11 5.79267e-11) (2.25381e-11 8.181e-12 1.28993e-10) (7.55005e-12 3.1804e-11 3.66506e-10) (6.36197e-11 1.91425e-11 3.5431e-10) (-2.24098e-11 -1.92615e-11 5.58981e-10) (1.23444e-11 -2.19822e-11 8.035e-10) (-1.07385e-11 2.86686e-11 7.91021e-10) (8.14805e-12 -5.29901e-11 8.67034e-10) (1.72462e-11 2.33577e-12 8.18713e-10) (-2.81042e-11 -1.294e-11 9.58148e-10) (6.52655e-12 5.10141e-12 6.39693e-10)
200           (7.16432e-12 9.73254e-12 -2.5074e-11) (-5.11151e-11 3.38952e-11 1.04244e-10) (1.40555e-11 4.61445e-11 2.10125e-10) (9.75821e-12 -2.69503e-11 1.72595e-10) (-1.71429e-11 1.65728e-12 6.31687e-11) (-3.99685e-11 1.47641e-11 1.96039e-10) (-2.90862e-11 -1.19559e-11 3.5687e-10) (2.13882e-12 6.75204e-12 3.3567e-10) (1.30753e-11 3.31941e-11 5.89065e-10) (-5.50347e-13 -5.42096e-13 7.41168e-10) (1.45779e-11 -8.08393e-12 1.28094e-09)
250           (-1.46337e-11 -1.92006e-11 4.16542e-11) (2.13989e-13 -8.95673e-12 5.12271e-11) (-3.22702e-11 8.39163e-12 1.83747e-10) (-6.88628e-12 -1.02079e-11 2.48041e-10) (1.99646e-11 -2.26458e-11 3.35118e-10) (1.80712e-11 5.39891e-12 3.74049e-10) (2.76116e-11 -3.63921e-11 5.60576e-10) (-1.48215e-11 1.05521e-12 6.39478e-10) (-7.38806e-12 3.61241e-12 7.40231e-10) (-8.18348e-12 -3.27217e-11 9.89617e-10) (4.36819e-12 -4.58254e-12 1.18314e-09)
300           (6.54766e-12 1.14201e-11 3.81955e-11) (2.12557e-11 4.27411e-11 2.70032e-10) (1.23403e-11 -6.64285e-12 2.33538e-10) (-1.40718e-11 -1.01182e-11 2.2938e-10) (-1.26626e-11 3.29928e-12 4.09031e-10) (1.36507e-11 1.44561e-11 3.97056e-10) (9.33999e-12 1.64582e-12 3.5085e-10) (-2.56975e-11 1.82149e-12 4.40642e-10) (-1.85764e-11 -4.00674e-11 5.38176e-10) (-3.171e-11 -2.24992e-11 7.55822e-10) (1.05637e-13 4.78944e-12 7.99991e-10)
350           (-8.37593e-12 1.70143e-11 -2.70224e-11) (-5.82677e-12 4.96309e-11 1.40481e-10) (-1.51355e-11 9.9397e-12 3.48747e-11) (-2.4784e-11 -3.53681e-11 2.74285e-10) (-1.65446e-11 -2.62629e-12 2.06901e-10) (1.30001e-11 -2.66703e-11 3.75929e-10) (-6.86802e-12 1.44768e-11 5.02851e-10) (1.17151e-11 1.85955e-11 6.3311e-10) (4.15614e-11 -4.21871e-11 8.04682e-10) (-1.57786e-11 1.77008e-11 8.26268e-10) (-8.25982e-14 -2.70969e-12 1.0186e-09)
400           (1.20359e-11 -2.62644e-12 -4.02822e-11) (-5.06972e-12 -1.73314e-13 -1.05757e-10) (5.67049e-12 -5.71994e-12 1.7164e-10) (8.21171e-12 -9.23324e-12 2.26812e-10) (-9.55708e-12 -2.21515e-11 3.52874e-10) (1.01989e-11 -9.93681e-12 4.204e-10) (4.54802e-12 1.40203e-11 4.83032e-10) (-1.00171e-11 1.29355e-11 4.4335e-10) (-8.22036e-12 3.33256e-11 4.46527e-10) (5.42827e-12 1.38338e-11 6.54704e-10) (-5.81606e-13 -6.22305e-14 8.37695e-10)
450           (-3.97225e-11 -3.06819e-11 -4.42641e-11) (3.69203e-12 -1.84988e-11 -5.32155e-11) (5.12574e-11 1.01328e-11 -5.80953e-11) (4.42186e-11 6.7345e-12 1.1172e-10) (5.00127e-11 4.89918e-11 4.00369e-11) (9.64128e-12 1.14463e-11 1.39573e-10) (-5.96559e-12 -4.12147e-11 3.8582e-10) (-1.64506e-11 -3.46449e-11 4.05715e-10) (-1.22823e-11 -2.40726e-11 3.18853e-10) (-9.16865e-12 -2.77703e-11 6.18199e-10) (-7.64545e-12 2.55989e-12 5.4263e-10)
500           (2.22085e-11 -1.2979e-11 2.84085e-11) (1.16268e-11 2.51531e-11 -2.11422e-10) (1.573e-12 -1.63418e-11 7.59542e-11) (3.60974e-11 -3.17013e-12 9.3492e-11) (-1.13967e-11 -2.12885e-12 2.68841e-10) (3.97316e-12 -3.13318e-11 4.04663e-10) (8.49954e-12 -7.64503e-12 4.39425e-10) (3.2813e-11 3.76006e-11 5.81566e-10) (-3.08052e-13 2.95741e-11 4.46052e-10) (5.71037e-13 1.49802e-12 6.22231e-10) (-1.70057e-11 5.28649e-14 6.81627e-10)
550           (2.64358e-11 -1.18072e-11 1.32548e-11) (3.3126e-11 -3.82216e-11 1.24896e-10) (-5.25698e-12 -3.11798e-11 1.90516e-10) (-3.86393e-12 2.33529e-12 2.31859e-10) (-4.73625e-11 2.94556e-11 3.15297e-10) (-4.34464e-11 7.24169e-12 3.15921e-10) (1.63016e-11 8.04204e-12 3.95048e-10) (9.13509e-13 6.02756e-12 5.5997e-10) (1.57356e-11 9.64138e-12 5.96241e-10) (-3.30808e-11 -6.05391e-12 7.58053e-10) (7.94807e-13 3.05199e-11 1.09727e-09)
600           (4.25354e-12 1.96611e-12 4.95131e-11) (2.83932e-11 -2.94841e-11 3.00702e-11) (3.10691e-11 -1.119e-12 6.23728e-11) (2.85953e-12 9.59929e-12 9.91528e-11) (-3.54199e-11 -2.51778e-11 1.13612e-10) (2.58392e-13 2.67984e-11 3.0429e-10) (-1.15986e-11 -1.7198e-11 4.43171e-10) (1.92978e-12 -3.87429e-12 4.16515e-10) (-4.80494e-13 -6.63758e-12 3.29105e-10) (1.34861e-11 -1.34601e-11 4.21765e-10) (4.27437e-12 -7.25592e-12 6.16034e-10)
650           (1.6125e-11 -2.98784e-11 9.16829e-12) (3.87763e-11 -2.75489e-11 9.02021e-11) (-2.6123e-11 -6.45568e-12 4.21787e-11) (5.0195e-12 1.92068e-11 2.89012e-10) (-5.13878e-11 3.01887e-11 2.6976e-10) (1.11435e-11 9.79575e-12 4.43067e-10) (-9.68588e-12 -1.20737e-11 5.36041e-10) (-2.56992e-11 1.11195e-11 6.64456e-10) (-1.03407e-11 -1.82881e-11 6.21104e-10) (-2.95463e-11 -2.88046e-12 7.6244e-10) (1.45624e-12 1.8856e-11 8.71147e-10)
700           (-2.01618e-11 -6.11075e-12 2.59573e-11) (-5.14136e-11 1.23529e-11 9.71659e-11) (-2.24627e-11 -1.54523e-11 2.23929e-10) (-4.88914e-11 1.96584e-11 1.78324e-10) (9.87676e-12 1.90364e-11 4.46888e-10) (3.96035e-13 2.91703e-11 2.63031e-10) (1.59195e-12 -1.80808e-11 3.65493e-10) (3.77233e-12 -1.72253e-11 5.64442e-10) (-5.25883e-11 1.72795e-11 7.17529e-10) (6.34665e-13 9.01503e-12 8.69522e-10) (-2.85405e-11 2.94064e-11 8.75005e-10)
750           (2.25971e-11 -1.91693e-11 -6.79113e-12) (6.8948e-12 -3.86666e-11 2.32551e-10) (-6.8168e-12 2.51188e-11 1.77753e-10) (2.04892e-11 -1.22115e-11 3.7488e-10) (-1.15941e-11 5.87954e-12 5.02656e-10) (1.08093e-12 3.15974e-11 4.85029e-10) (7.09647e-13 -7.03941e-12 5.26094e-10) (-6.78797e-12 1.52652e-11 7.42434e-10) (-2.39536e-11 3.73434e-11 6.3445e-10) (-1.06394e-11 -1.33613e-11 9.2958e-10) (1.74514e-12 9.45366e-12 1.35358e-09)
800           (4.90337e-12 2.10403e-11 2.9938e-11) (2.63897e-11 1.40305e-12 1.21231e-10) (-3.85463e-11 -1.67651e-11 -8.10217e-11) (-3.41841e-11 -3.29969e-13 -5.47027e-11) (-5.19071e-12 -8.66095e-12 -5.83451e-11) (-4.5339e-12 1.70181e-11 1.9129e-11) (-1.29989e-11 3.05343e-11 -1.36961e-11) (2.88797e-11 2.90361e-11 -1.46022e-11) (-5.87817e-12 -4.32188e-11 1.64885e-10) (1.62388e-11 7.92984e-12 8.25081e-11) (2.31141e-11 1.14248e-11 3.52928e-10)
850           (-6.17723e-13 8.97346e-12 -2.2144e-11) (-5.12132e-12 -2.4376e-13 -1.48563e-11) (1.23365e-11 4.8629e-11 8.79902e-12) (6.44497e-12 2.35291e-13 7.05669e-11) (4.6259e-11 5.92463e-12 1.54124e-10) (9.52853e-12 1.04056e-11 2.15146e-10) (1.27679e-11 9.39693e-12 2.42117e-10) (-1.85316e-11 3.06107e-11 4.22098e-10) (-2.78904e-11 -4.03379e-11 4.70564e-10) (1.46435e-11 1.03262e-11 5.49834e-10) (7.99845e-13 2.71334e-11 6.61805e-10)
900           (-3.2229e-11 -1.48299e-11 1.56604e-11) (-1.86549e-11 9.67845e-12 6.55405e-11) (-4.69985e-11 1.00821e-11 2.1882e-10) (-2.40966e-11 -4.49468e-13 -1.26275e-10) (-2.26259e-11 1.78675e-11 -2.66888e-11) (2.14863e-11 4.88283e-11 1.1094e-10) (-2.25783e-11 -1.02482e-13 5.99724e-11) (-1.25646e-11 -1.81477e-11 1.18679e-10) (-2.41628e-11 -1.27783e-11 1.94711e-10) (-1.72526e-13 3.10798e-11 4.13158e-10) (3.58779e-11 -3.12463e-11 3.62543e-10)
950           (-8.97181e-13 -2.63584e-11 -7.35152e-11) (-2.90048e-12 -7.53401e-12 7.92076e-11) (-4.54569e-12 -1.83591e-11 -2.38718e-11) (1.56643e-11 -1.1999e-11 1.29342e-10) (-7.41589e-12 -8.56374e-13 2.0059e-10) (4.64488e-12 9.93543e-12 1.52651e-10) (-2.78583e-11 4.43491e-12 1.94971e-10) (-1.7173e-11 3.73887e-12 2.34046e-10) (-4.01495e-11 -5.71919e-12 4.95272e-10) (-3.48491e-11 -2.20841e-11 3.94995e-10) (-1.28082e-11 1.12644e-11 7.33291e-10)
1000          (-1.2297e-11 2.27297e-11 4.44251e-11) (1.97955e-11 1.95334e-11 -4.71909e-11) (-1.99135e-12 6.93305e-12 -2.74737e-10) (2.49464e-11 -1.16516e-12 -1.32739e-10) (2.15669e-11 5.21195e-11 -2.00768e-10) (-8.50153e-12 -7.72138e-12 -1.19982e-11) (-1.86421e-11 2.97538e-11 -2.74152e-11) (-3.52033e-11 2.23443e-11 -1.99472e-11) (-2.30034e-11 6.10858e-11 1.49091e-10) (2.12869e-11 -2.17537e-11 3.28078e-10) (-4.31012e-12 5.13159e-12 1.44098e-10)
1050          (-1.94432e-11 -1.0653e-11 -1.62679e-11) (3.86058e-11 -1.1329e-11 2.62161e-11) (-1.31606e-12 1.67899e-11 5.55734e-11) (2.13423e-11 -1.92324e-11 1.75435e-10) (-9.73516e-12 -3.46238e-11 2.06001e-10) (-9.7141e-12 3.15933e-11 4.00314e-10) (-5.17571e-12 1.69647e-11 5.64064e-10) (8.48565e-12 -2.78021e-13 8.11621e-10) (4.18752e-11 -2.44605e-11 8.48346e-10) (3.45713e-12 1.07048e-11 8.54662e-10) (1.9407e-11 -3.12484e-11 8.55135e-10)
1100          (3.00058e-11 1.27795e-11 3.98714e-11) (-1.37523e-11 2.359e-11 1.39639e-10) (-1.03519e-11 -2.14257e-12 3.67597e-10) (-7.38601e-12 3.91378e-11 4.66094e-10) (8.39279e-12 5.79538e-12 4.17652e-10) (3.83536e-12 -9.15656e-13 3.93197e-10) (-3.14806e-12 -1.05467e-11 3.85213e-10) (-3.27609e-11 -4.61548e-13 4.32866e-10) (-8.96155e-12 5.42706e-12 5.54342e-10) (1.41236e-11 8.39048e-12 6.30871e-10) (1.36273e-11 -1.58692e-11 6.84076e-10)
1150          (3.2257e-11 4.45946e-11 3.88252e-11) (2.19027e-11 -3.29181e-11 1.77375e-10) (1.65644e-12 -6.51583e-12 3.08969e-10) (2.10697e-12 -4.87873e-12 3.78743e-10) (-1.31392e-11 2.86321e-11 3.43876e-10) (-2.50672e-11 -1.31279e-11 3.43296e-10) (-1.96848e-11 -4.20103e-12 6.4724e-10) (2.72925e-12 9.08532e-12 5.78629e-10) (1.98421e-11 -9.5254e-12 3.92174e-10) (5.39352e-12 -2.15839e-11 5.44551e-10) (-6.25243e-12 -1.19827e-11 6.09653e-10)
1200          (-3.64244e-11 -1.50922e-11 6.19969e-11) (-3.99575e-11 6.72222e-12 3.1081e-10) (3.44578e-12 1.9213e-11 1.7473e-11) (3.16762e-11 1.92042e-11 3.54956e-10) (6.60025e-12 -1.40292e-11 3.20414e-10) (2.54701e-11 3.06423e-11 3.96458e-10) (9.72433e-12 1.21825e-11 5.23876e-10) (3.48335e-11 1.26576e-11 7.56708e-10) (2.20062e-11 1.92035e-11 8.56027e-10) (1.76607e-11 -5.78368e-12 1.04071e-09) (-2.2854e-11 1.26604e-11 1.13193e-09)
1250          (-1.42895e-11 3.82306e-11 3.59961e-11) (2.79085e-11 9.64708e-12 4.53741e-11) (4.79668e-11 1.3535e-11 8.10384e-11) (-8.95937e-12 -3.18776e-11 -2.22125e-11) (-2.21217e-11 5.92106e-12 -7.45755e-12) (3.33377e-11 1.18342e-11 5.17387e-11) (5.12553e-13 1.46139e-11 3.48509e-10) (-5.53081e-12 6.14494e-12 4.66646e-10) (2.33754e-11 5.3398e-12 2.76712e-10) (5.88236e-12 -1.27338e-11 6.61525e-10) (-1.01842e-12 -1.8384e-12 6.75677e-10)
1300          (1.3266e-11 -3.5581e-11 5.94243e-11) (5.10928e-12 -4.5531e-11 5.25419e-11) (2.55217e-11 -4.54436e-11 3.02558e-10) (-9.25862e-12 -1.05784e-11 5.46885e-10) (-1.62161e-11 -1.78193e-11 5.59166e-10) (-4.06098e-12 -1.90929e-11 3.95544e-10) (-3.22112e-11 -3.38467e-11 4.74424e-10) (-3.92534e-12 -1.20997e-11 5.92019e-10) (-2.18423e-11 8.79572e-12 6.63639e-10) (5.46108e-13 9.68661e-12 8.0326e-10) (1.79413e-11 5.65022e-12 7.24962e-10)
1350          (1.28777e-11 3.01409e-11 -5.04633e-11) (3.93013e-11 4.88166e-11 3.11005e-12) (3.69126e-11 3.55187e-11 1.53348e-10) (6.34372e-12 -1.35278e-11 2.86702e-10) (-3.33219e-11 3.87016e-11 4.1763e-10) (-1.47643e-11 3.0013e-11 5.88051e-10) (-4.92536e-12 -3.30868e-11 8.17527e-10) (1.92432e-11 6.64772e-12 9.40737e-10) (3.62195e-12 -1.37983e-11 1.12047e-09) (6.97274e-12 4.13703e-14 1.30652e-09) (-1.39936e-12 1.19796e-11 1.3866e-09)
1400          (2.06305e-11 -1.58903e-11 -5.22191e-11) (-1.49416e-11 2.48946e-11 -4.82491e-11) (-2.08489e-11 -6.02583e-12 -2.49328e-11) (-5.09893e-11 2.09709e-11 -1.82398e-10) (-2.72373e-11 1.41528e-11 -2.01831e-11) (1.07054e-11 -4.43899e-11 -5.66678e-11) (2.88441e-11 -2.10528e-11 5.88384e-11) (-1.71187e-11 -2.74915e-11 9.71339e-11) (5.1444e-11 2.80415e-11 2.0182e-10) (-3.10453e-11 7.9245e-12 1.37551e-10) (-1.37951e-12 -1.55535e-11 2.21677e-10)
1450          (-2.03406e-11 -5.67724e-12 4.1248e-11) (5.75957e-11 -1.38188e-12 1.01928e-10) (8.07015e-12 -3.70169e-11 1.76501e-12) (-2.69883e-11 1.02739e-11 1.99566e-11) (1.56936e-11 8.49266e-12 7.05888e-11) (4.7924e-12 -1.10252e-11 4.43665e-11) (-2.23118e-11 -1.14927e-11 3.77797e-11) (2.31693e-12 1.12783e-11 1.38747e-10) (-1.32778e-11 -1.75352e-11 1.67959e-10) (-1.38938e-11 -5.69906e-12 2.96612e-10) (7.72562e-13 -2.35051e-11 4.78285e-10)
1500          (2.04284e-11 3.73502e-11 1.16693e-11) (6.10952e-12 6.95017e-12 4.9424e-11) (-1.91734e-11 -6.23876e-12 1.909e-10) (2.94345e-11 8.45757e-12 1.80411e-10) (3.30061e-11 1.24812e-11 2.17639e-10) (1.73716e-11 -9.1045e-12 2.2952e-10) (-8.19103e-13 3.0433e-11 3.98089e-10) (-2.45671e-11 1.96861e-11 2.25529e-10) (-4.5084e-11 3.97558e-12 2.86029e-10) (-1.51857e-11 2.3882e-11 1.77346e-10) (-6.45644e-12 2.17069e-11 4.99506e-10)
1550          (-5.04628e-12 -1.52172e-11 -1.01977e-11) (-1.90684e-11 1.72602e-11 1.40998e-10) (-2.90555e-11 -3.08478e-12 9.77132e-11) (-2.15088e-11 3.64674e-12 7.75031e-12) (2.02083e-11 1.202e-11 9.05852e-11) (-3.99881e-14 -3.97929e-12 1.38113e-10) (3.29001e-11 -9.68747e-12 2.83033e-10) (8.50947e-12 -2.49577e-11 3.65162e-10) (-3.77376e-11 -6.9484e-12 4.01449e-10) (5.65162e-12 2.22571e-12 4.53963e-10) (2.73457e-13 -1.50323e-11 6.24686e-10)
1600          (-1.92263e-11 -1.32467e-11 -9.49921e-12) (-1.57189e-11 -2.76938e-11 6.40445e-11) (5.69781e-12 -8.43719e-13 -2.743e-11) (-1.89311e-11 1.94676e-11 6.23429e-11) (2.03691e-11 -1.94553e-11 1.87673e-11) (3.64858e-11 1.89899e-11 1.96839e-10) (-2.0837e-11 3.73051e-11 2.74514e-10) (-4.28938e-12 -9.11031e-13 3.988e-10) (6.4258e-12 -2.03339e-12 6.2661e-10) (-1.36094e-11 -3.8021e-12 5.38802e-10) (-3.46035e-12 -1.32269e-11 6.18776e-10)
1650          (4.88163e-11 -2.35868e-11 2.74792e-11) (4.19314e-11 -3.48732e-12 -5.74095e-11) (-2.14156e-11 -8.77013e-12 3.48641e-10) (-4.64912e-13 2.12361e-11 3.68789e-10) (-1.34918e-11 1.65706e-11 2.85269e-10) (-5.84964e-11 4.28432e-12 3.48415e-10) (-4.61176e-12 1.30136e-11 6.21018e-10) (5.22097e-12 2.09425e-11 5.62112e-10) (1.79088e-11 -2.29076e-11 7.81295e-10) (-3.26671e-12 3.12649e-11 7.2121e-10) (7.83309e-12 2.35021e-11 1.0683e-09)
1700          (7.24141e-12 -1.54878e-11 5.30637e-11) (-4.11546e-11 2.00863e-11 6.92753e-11) (4.73581e-12 -2.28298e-12 3.3458e-10) (2.82698e-11 -6.65438e-12 4.86995e-10) (9.01548e-12 3.34772e-11 5.46932e-10) (-1.02924e-11 -2.82765e-11 5.58336e-10) (-9.91445e-12 2.06693e-11 8.16674e-10) (1.43126e-11 6.77265e-12 1.04039e-09) (3.36833e-11 1.88484e-11 1.19506e-09) (2.12241e-12 -1.23534e-12 1.39308e-09) (-2.02306e-12 2.74296e-11 1.75482e-09)
1750          (6.3095e-12 -3.07658e-11 -3.90654e-11) (4.76307e-12 2.60293e-11 8.08004e-11) (-6.39148e-13 2.791e-11 2.54549e-10) (-3.44599e-11 2.84919e-11 3.28698e-10) (-1.98727e-11 1.0232e-11 5.19627e-10) (-1.34597e-11 2.30112e-11 5.36926e-10) (8.60121e-12 9.88886e-12 6.61735e-10) (5.02101e-11 2.35779e-11 7.94517e-10) (4.82346e-12 2.07988e-11 9.14688e-10) (-1.17021e-11 -5.76883e-12 1.02094e-09) (1.39602e-11 3.17153e-12 1.16689e-09)
1800          (-2.25281e-11 -2.17679e-11 -2.82754e-11) (1.68689e-11 1.50255e-11 1.97066e-10) (-4.9907e-12 -1.84892e-11 -1.55653e-12) (2.86198e-11 1.12944e-12 7.22653e-11) (5.38224e-11 7.2089e-12 1.77341e-10) (4.99003e-12 2.49215e-11 2.66711e-10) (1.73848e-11 -1.65258e-11 5.32194e-10) (-2.47206e-11 -1.22508e-11 6.95715e-10) (1.41123e-11 -1.73364e-11 7.75881e-10) (-1.6029e-11 2.15701e-13 8.74025e-10) (-6.89687e-13 -1.97542e-12 9.57904e-10)
1850          (-2.68017e-11 1.45067e-11 6.39022e-12) (1.06821e-11 1.64805e-12 1.6388e-10) (-1.06893e-11 1.03806e-11 2.92472e-10) (2.82048e-11 1.36217e-11 4.34449e-10) (9.24595e-13 -7.20346e-13 5.51562e-10) (-4.85367e-12 -9.81895e-14 5.67233e-10) (-1.95381e-11 1.05084e-11 5.78669e-10) (-2.60516e-11 -2.00775e-11 7.30539e-10) (-1.64877e-11 3.05985e-11 6.5527e-10) (-1.71534e-12 -2.32096e-11 7.01131e-10) (-2.59116e-12 -2.97004e-12 7.94563e-10)
1900          (2.18631e-11 2.72001e-12 1.35253e-11) (-4.03747e-11 1.31609e-11 5.77888e-11) (-1.88069e-11 5.45602e-13 3.09606e-10) (1.32433e-11 -8.11161e-12 3.10885e-10) (-4.94248e-11 5.40469e-11 2.99358e-10) (-1.22688e-11 -3.5373e-11 2.68378e-10) (2.73908e-11 -5.84714e-11 4.22856e-10) (2.05838e-11 6.36066e-11 5.93419e-10) (2.34043e-11 1.69198e-11 7.04104e-10) (-5.84911e-12 4.87991e-13 8.18484e-10) (1.64946e-11 -8.74667e-12 1.05939e-09)
1950          (-1.89106e-12 7.50487e-12 -9.56592e-12) (-4.04411e-11 3.46178e-11 2.50056e-10) (-7.7011e-12 1.24051e-11 2.45719e-10) (1.35178e-11 2.93926e-11 4.51168e-10) (2.85438e-11 -3.55609e-11 3.28773e-10) (-1.80945e-11 5.70289e-11 3.71499e-10) (-4.36032e-11 2.06273e-11 2.77406e-10) (3.29871e-11 -2.075e-11 4.954e-10) (-5.28925e-12 7.63868e-12 1.8196e-10) (-1.62115e-12 1.85179e-11 4.92864e-10) (5.29451e-12 -1.85157e-11 7.56033e-10)
2000          (-1.27208e-11 -2.34479e-11 -3.72803e-11) (2.26017e-11 -1.57092e-11 1.12081e-10) (5.31282e-12 6.96658e-12 1.56921e-10) (-3.25428e-11 1.07934e-11 2.60492e-10) (-1.57085e-11 3.98811e-12 3.18717e-10) (-1.06201e-11 -2.03281e-11 6.50722e-10) (-2.77857e-11 -1.21856e-11 6.33466e-10) (8.36167e-12 -1.95273e-11 6.17923e-10) (1.40364e-12 1.86952e-11 8.3536e-10) (2.98285e-11 -1.39125e-11 6.85052e-10) (-1.90544e-11 -1.36245e-12 8.28777e-10)
2050          (-2.18537e-11 1.18968e-11 -4.9637e-11) (1.73416e-11 -2.75361e-12 1.40402e-11) (5.6143e-12 2.34022e-11 2.59726e-10) (-1.20444e-11 -2.1737e-11 2.4396e-10) (5.26232e-12 -2.53402e-11 1.97758e-10) (-8.54343e-12 -6.18811e-12 2.26517e-10) (1.96736e-11 -3.97065e-11 3.14463e-10) (2.38823e-11 2.02156e-11 5.4807e-10) (2.21608e-11 1.88277e-11 7.69861e-10) (-2.89756e-11 -3.9096e-11 8.05126e-10) (-4.23721e-12 -1.34976e-11 1.14421e-09)
2100          (2.47625e-11 2.02015e-12 5.26466e-11) (-1.85085e-11 -3.31744e-11 4.96007e-11) (1.08444e-11 2.40556e-11 3.6063e-10) (1.59436e-12 1.1225e-13 4.23638e-10) (2.84628e-11 -2.63234e-11 4.25623e-10) (-3.22438e-11 -1.46405e-11 3.72277e-10) (-5.38697e-12 -5.34472e-12 5.03566e-10) (2.60018e-11 1.69912e-11 5.68438e-10) (1.58648e-12 -4.32334e-12 6.54637e-10) (-3.65504e-11 -5.61569e-11 6.0687e-10) (1.48123e-11 7.66022e-13 9.38373e-10)
2150          (2.55548e-11 1.79038e-11 -5.10947e-11) (1.79111e-11 2.31086e-11 1.40236e-10) (4.62465e-11 -2.32989e-11 1.54823e-10) (-2.04752e-11 2.22366e-11 2.01887e-10) (7.77009e-12 -1.06578e-11 2.20123e-10) (3.0724e-11 -6.06909e-12 4.81751e-10) (-2.28764e-11 2.17276e-12 3.94786e-10) (-4.14689e-11 2.15523e-11 4.39129e-10) (-2.8276e-11 3.27109e-11 6.57868e-10) (9.42389e-12 -2.7157e-11 6.16254e-10) (1.80736e-11 2.22104e-11 8.24325e-10)
2200          (-6.64113e-13 -7.1299e-12 -2.92046e-11) (5.55802e-11 -4.3551e-11 7.44278e-11) (9.84244e-12 -5.40847e-12 2.24316e-10) (2.10214e-11 -4.82274e-12 4.26599e-10) (1.23255e-11 1.05356e-11 5.00153e-10) (-1.03452e-11 -3.41729e-11 6.10745e-10) (4.25587e-11 -4.62332e-12 8.02198e-10) (1.16198e-11 1.46197e-11 9.26786e-10) (-4.64049e-11 2.50182e-12 9.93156e-10) (-7.00791e-12 -1.5688e-11 1.16585e-09) (9.2265e-13 -2.17136e-12 1.49367e-09)
2250          (-1.27102e-12 -3.48721e-12 -2.3247e-11) (3.05906e-11 1.09726e-11 -1.74107e-11) (-7.47866e-12 5.14362e-12 1.47473e-10) (-2.74573e-11 -1.67379e-11 1.99777e-10) (9.39248e-12 -2.16172e-11 2.95475e-10) (-1.53909e-11 -7.59362e-12 3.33404e-10) (-1.67338e-11 -3.34945e-12 4.74827e-10) (8.18239e-12 -6.6053e-12 5.12926e-10) (2.99725e-11 -1.08475e-11 5.16649e-10) (-1.78281e-11 2.70701e-11 6.26388e-10) (1.49043e-11 1.15758e-11 5.60662e-10)
2300          (-2.44979e-11 2.17992e-12 -2.39138e-11) (-3.81537e-11 -3.02032e-11 1.81421e-11) (-2.53047e-11 1.37794e-11 1.05962e-11) (3.02644e-11 -8.55547e-12 -5.03621e-11) (1.28118e-11 4.00219e-11 8.39467e-11) (-2.17723e-11 -9.19755e-12 1.3984e-10) (-2.90596e-11 -2.58793e-11 1.2968e-10) (-5.43398e-12 -4.92821e-11 2.49306e-10) (3.52089e-12 2.63528e-12 1.92622e-10) (1.3301e-11 -3.54634e-11 2.43397e-10) (1.0682e-12 -1.92647e-12 3.68511e-10)
2350          (3.53334e-13 -5.53616e-14 9.96309e-12) (-1.40322e-11 -1.43438e-11 1.47754e-10) (1.92609e-11 3.14126e-11 2.05828e-10) (-1.76395e-11 1.05869e-11 2.35395e-10) (-1.56798e-11 8.27228e-12 3.47073e-10) (-8.33764e-12 -7.14737e-12 6.66591e-10) (-1.98668e-11 2.94336e-11 6.81539e-10) (-1.75712e-11 3.49532e-11 7.73534e-10) (-3.30923e-11 -3.30663e-12 9.68498e-10) (-1.55623e-11 3.52647e-11 7.99841e-10) (2.52726e-11 -1.00454e-11 1.04112e-09)
2400          (-3.86524e-11 5.40678e-12 1.46626e-11) (-1.51271e-11 4.78289e-11 2.16015e-10) (-5.09973e-12 -2.22452e-11 3.27187e-10) (2.11747e-12 3.67786e-12 2.54393e-10) (-1.6071e-11 -3.90876e-11 3.52401e-10) (-7.68767e-12 -3.6853e-11 3.89226e-10) (3.29482e-11 -4.1253e-12 4.61354e-10) (-1.8157e-11 -3.6732e-11 3.56359e-10) (-5.30402e-12 -4.38723e-12 6.53186e-10) (-5.10594e-12 -6.23945e-11 7.32657e-10) (-3.49953e-12 -2.10597e-11 1.02804e-09)
2450          (-8.65202e-12 -2.38039e-11 -2.48942e-12) (8.32982e-12 2.38653e-11 6.97715e-11) (-8.47817e-12 1.23998e-11 -5.70441e-12) (-4.04297e-11 -2.26206e-11 3.15674e-10) (4.51826e-11 1.28254e-11 2.84721e-10) (2.93214e-11 2.1186e-11 1.94073e-10) (2.53151e-11 -1.41977e-11 3.62398e-10) (2.56738e-11 -3.14494e-11 6.73541e-10) (3.55951e-11 1.55788e-11 7.41025e-10) (3.1017e-11 2.55048e-11 9.41137e-10) (-3.04525e-11 -1.44072e-11 9.76628e-10)
2500          (1.70595e-11 -2.65783e-11 4.80377e-11) (-4.57299e-12 -1.19745e-11 -3.48517e-11) (-5.49927e-12 1.77704e-11 6.37462e-11) (-2.51504e-11 -4.21414e-13 -6.03059e-11) (-1.99007e-11 -1.87706e-11 1.58069e-10) (-4.40633e-12 -3.3085e-12 5.19403e-11) (6.11011e-12 -3.79512e-11 3.35592e-10) (1.7074e-12 7.87163e-13 4.47991e-10) (1.55506e-11 1.73461e-11 4.13195e-10) (2.95266e-11 1.11369e-11 6.25926e-10) (-1.29478e-12 -1.00074e-12 4.30517e-10)
2550          (-6.7466e-12 1.3907e-12 -2.31169e-12) (-1.35057e-11 1.38697e-11 1.6728e-10) (1.93983e-11 3.1728e-12 3.35448e-10) (4.81484e-12 -1.18552e-11 3.61059e-10) (2.73065e-11 -5.05481e-12 3.25e-10) (4.6644e-11 1.96451e-11 4.45949e-10) (-4.59203e-12 1.06988e-11 3.83266e-10) (-3.88861e-11 3.24839e-12 4.83262e-10) (-3.20491e-11 -1.06359e-11 6.27741e-10) (-5.218e-11 3.4092e-11 6.95168e-10) (-7.30303e-12 6.78861e-14 9.87161e-10)
2600          (2.35452e-11 1.91709e-11 -4.60713e-11) (4.54869e-12 -1.71583e-11 -3.44576e-11) (2.43036e-11 2.14977e-11 7.4426e-12) (1.55551e-11 1.49056e-12 1.66998e-11) (-7.06604e-12 1.72572e-11 1.54762e-10) (1.66148e-11 1.0005e-11 4.81021e-10) (-2.3992e-11 -8.01129e-12 7.21807e-10) (-1.32836e-12 2.66709e-11 6.30177e-10) (-2.95934e-11 -4.03322e-12 5.34257e-10) (1.80985e-11 -4.05816e-11 6.4415e-10) (2.16749e-11 1.23729e-12 8.55796e-10)
2650          (1.14004e-11 -6.9291e-12 -6.40816e-11) (2.56909e-11 2.35639e-11 1.40268e-12) (-4.42323e-12 -1.3116e-11 -1.82897e-10) (2.00012e-11 -3.61575e-11 4.82623e-11) (5.95215e-12 1.28592e-11 9.63574e-12) (-4.76592e-11 -2.61493e-11 1.75562e-10) (-7.10378e-12 2.50624e-11 2.99188e-10) (-1.09095e-11 2.13191e-12 3.90739e-10) (2.3262e-11 -5.62308e-11 7.8416e-10) (6.41009e-12 -6.23173e-12 7.42546e-10) (4.67199e-12 -2.46914e-12 8.84147e-10)
2700          (3.0649e-11 1.12084e-11 -1.00806e-10) (-2.35644e-11 8.84355e-12 2.45189e-10) (-3.33517e-12 3.37247e-11 4.76162e-10) (2.68218e-11 -2.53993e-11 5.18717e-10) (-9.05653e-12 -4.43377e-11 7.00271e-10) (1.86325e-12 -5.23833e-12 7.64387e-10) (2.70541e-12 -1.79678e-11 1.1437e-09) (-1.90464e-12 -6.96857e-12 1.17042e-09) (-7.50228e-12 3.76286e-11 1.20773e-09) (1.27519e-11 3.91882e-12 1.18545e-09) (-1.57721e-11 6.23576e-12 1.4665e-09)
2750          (1.72012e-11 -9.87016e-12 3.19076e-12) (4.0555e-12 1.79394e-11 -9.21152e-11) (-1.33464e-14 1.5868e-11 1.37789e-11) (-1.44007e-12 8.02309e-12 1.98995e-10) (3.94321e-11 -2.89395e-11 7.11359e-12) (4.51921e-11 3.83192e-11 2.40954e-10) (2.14343e-11 -3.54455e-11 3.05244e-10) (1.01904e-11 -1.99269e-11 4.134e-10) (-2.23843e-11 -2.61036e-11 3.48104e-10) (-1.01491e-11 -1.44705e-11 4.919e-10) (-8.65149e-12 1.12664e-11 5.36448e-10)
2800          (1.01656e-11 -2.87854e-11 -2.7405e-11) (4.14421e-11 1.43048e-11 3.67443e-11) (-6.87845e-12 1.76759e-12 2.75442e-10) (1.40746e-11 -5.93577e-11 3.93e-10) (-3.06335e-11 -4.17163e-11 3.58435e-10) (-2.32332e-11 3.45402e-12 4.16149e-10) (1.26031e-11 2.41057e-11 4.05554e-10) (7.20216e-12 -1.35994e-11 4.88198e-10) (-1.17337e-11 -2.76949e-11 4.8262e-10) (3.75802e-12 -1.18206e-11 7.67282e-10) (8.57744e-13 1.10539e-12 7.18601e-10)
2850          (3.17236e-11 3.1457e-11 1.66466e-11) (-1.33657e-11 -9.69907e-12 1.40901e-10) (1.33123e-11 -2.46877e-11 1.03775e-10) (3.80186e-11 9.79281e-12 2.833e-10) (3.03845e-13 -9.44077e-13 7.39365e-10) (1.83684e-11 4.30529e-11 6.0985e-10) (2.94534e-11 -5.62556e-12 8.73503e-10) (-1.08839e-11 3.72797e-11 9.99149e-10) (-7.5258e-12 1.45815e-11 9.56193e-10) (2.21001e-12 2.48668e-12 1.23039e-09) (-1.6565e-11 -2.09555e-11 1.19723e-09)
2900          (1.5475e-11 1.74093e-11 3.76162e-11) (-1.88148e-11 3.22107e-11 5.50877e-11) (-1.42333e-11 -3.723e-12 -7.29073e-11) (-2.51612e-11 -4.64095e-11 -2.14529e-11) (8.28807e-12 -6.74235e-12 1.21517e-10) (1.76392e-11 2.21711e-11 1.28129e-10) (4.01275e-12 -1.35516e-11 3.49688e-10) (2.30732e-11 -6.65333e-12 4.48295e-10) (6.10225e-11 2.7727e-11 6.43141e-10) (9.52603e-12 5.71614e-12 6.65864e-10) (-2.19596e-11 9.63186e-12 8.41168e-10)
2950          (-1.56288e-11 -2.27736e-11 -7.61978e-13) (7.21453e-12 -2.73423e-12 2.04455e-11) (2.90308e-11 -3.12802e-11 9.68128e-11) (4.05302e-12 -1.38358e-11 -6.66377e-11) (-1.6826e-11 -1.2712e-11 -1.04314e-11) (1.00774e-11 -1.0834e-12 -1.79139e-10) (-1.71853e-11 -2.49599e-12 -1.59753e-10) (-1.62918e-11 3.81774e-11 -1.56129e-10) (-3.87226e-11 -1.80122e-11 -8.18843e-11) (1.09122e-11 1.06955e-11 -4.30343e-11) (2.06309e-11 -1.37759e-13 -1.65127e-10)
3000          (-2.89962e-11 -2.27029e-11 -1.02732e-11) (7.89829e-12 -2.28805e-11 -7.27613e-11) (3.49696e-12 3.5464e-11 1.1672e-11) (3.09577e-11 2.48286e-11 1.6901e-10) (-1.2856e-12 -1.45855e-11 3.4302e-10) (1.06348e-11 -2.7947e-12 2.62061e-10) (1.28093e-11 7.04768e-12 2.68445e-10) (-1.13828e-12 1.5013e-11 4.95998e-10) (-2.19846e-11 -1.44792e-11 4.35422e-10) (-2.32358e-12 -2.26169e-11 5.52255e-10) (-2.12572e-11 5.55214e-12 4.94302e-10)
3050          (1.25794e-11 -1.53683e-11 1.55505e-12) (2.14726e-12 -2.85933e-11 6.95046e-11) (5.0244e-12 -3.13389e-11 2.50417e-10) (-3.06685e-11 -5.33573e-12 4.06012e-10) (-3.01187e-11 5.11492e-12 5.6772e-10) (-1.23815e-12 7.63513e-12 7.46396e-10) (-5.01368e-12 -4.66859e-12 7.65969e-10) (-7.40999e-12 -8.15209e-12 8.40369e-10) (-3.99768e-11 -8.01272e-12 7.5653e-10) (-6.38704e-12 -9.13192e-12 9.29266e-10) (1.1731e-11 3.31745e-12 1.16619e-09)
3100          (-1.6247e-11 -9.95243e-12 3.04156e-11) (2.01024e-11 -4.89144e-11 3.77916e-11) (7.59319e-12 6.33022e-12 2.09976e-10) (2.16493e-11 -3.53535e-12 6.29297e-11) (5.25547e-12 -1.66201e-11 2.06305e-10) (3.60433e-11 6.38256e-12 2.68372e-10) (1.08625e-11 2.07075e-11 4.58694e-10) (-2.7522e-11 -1.71015e-11 4.07285e-10) (-1.06459e-11 -2.15164e-11 8.50566e-10) (4.60275e-13 2.65413e-11 7.43185e-10) (-1.1444e-11 3.49569e-13 9.56606e-10)
3150          (9.44585e-12 -2.08556e-11 -3.63587e-12) (1.09393e-11 -1.19568e-11 6.27264e-11) (5.78414e-11 2.01764e-13 1.28423e-10) (6.36332e-12 -1.45806e-11 2.80075e-10) (2.91422e-12 9.41421e-12 1.56601e-10) (2.98667e-11 2.92093e-11 9.45734e-11) (-9.26958e-12 2.95978e-11 3.93377e-10) (4.10354e-11 -1.93235e-11 3.97839e-10) (-8.24777e-12 9.42245e-13 4.88615e-10) (6.73519e-12 -1.69582e-11 5.77273e-10) (-1.13663e-11 -1.70839e-11 4.89535e-10)
3200          (-1.44112e-11 -4.8822e-12 1.16635e-12) (-8.42451e-12 4.28752e-11 2.35198e-10) (1.83042e-11 -1.16646e-11 2.37881e-10) (5.32038e-11 2.19733e-11 3.01494e-10) (-2.56883e-11 -1.51362e-11 1.92882e-10) (9.78352e-12 -1.52149e-11 4.29483e-10) (-1.94372e-12 1.32021e-11 5.98808e-10) (-1.9567e-11 2.78357e-11 6.18946e-10) (-3.18345e-12 -2.66227e-11 5.22819e-10) (4.58073e-11 1.18082e-11 6.9773e-10) (-3.65665e-12 1.57177e-11 7.6527e-10)
3250          (2.13872e-11 2.98994e-11 3.61479e-11) (-2.41253e-11 3.02239e-11 9.10245e-11) (3.58687e-11 -4.72667e-13 2.72509e-10) (1.40241e-11 -5.75524e-12 3.92627e-10) (-3.3821e-12 2.17709e-11 3.99553e-10) (4.25544e-11 -8.15223e-12 5.21281e-10) (-2.78241e-11 -2.69991e-11 5.74941e-10) (-9.8582e-12 1.18915e-11 7.31072e-10) (3.096e-11 -1.13464e-11 6.62833e-10) (4.96663e-12 -2.24016e-11 9.06536e-10) (1.64221e-11 3.42941e-12 9.62914e-10)
3300          (-2.13475e-11 2.36645e-11 8.27923e-12) (-5.71727e-11 -1.45081e-11 1.97747e-10) (4.22807e-12 -4.9066e-12 -4.41447e-11) (-1.77128e-11 8.81922e-12 -1.14788e-10) (-2.66573e-11 2.81164e-11 6.12292e-11) (-1.87512e-11 -3.16331e-11 1.9268e-10) (1.16244e-12 3.06014e-11 1.79969e-10) (7.56064e-12 1.98562e-12 4.43e-10) (1.72111e-11 -1.85275e-12 4.84045e-10) (-8.31921e-12 -7.48699e-12 8.00982e-10) (-1.45332e-11 3.00244e-11 7.37563e-10)