# Probe 0 (0.0015 0.0015 0)
# Probe 1 (0.0015 0.0015 0.002)
# Probe 2 (0.0015 0.0015 0.004)
# Probe 3 (0.0015 0.0015 0.006)
# Probe 4 (0.0015 0.0015 0.008)
# Probe 5 (0.0015 0.0015 0.01)
# Probe 6 (0.0015 0.0015 0.012)
# Probe 7 (0.0015 0.0015 0.014)
# Probe 8 (0.0015 0.0015 0.016)
# Probe 9 (0.0015 0.0015 0.018)
# Probe 10 (0.0015 0.0015 0.02)
# Time        0             1             2             3             4             5             6             7             8             9             10           
50            (-39.3294 -39.3294 -1.43176e+07) (-39.3294 -39.3294 -1.43176e+07) (-39.3294 -39.3294 -1.43176e+07) (-22.2868 -22.2868 -1.13078e+07) (-22.2868 -22.2868 -1.13078e+07) (6.67138 6.67138 -7.79924e+06) (6.67138 6.67138 -7.79924e+06) (17.1089 17.1089 -5.92998e+06) (17.1089 17.1089 -5.92998e+06) (8.24687 8.24687 -6.33192e+06) (8.24687 8.24687 -6.33192e+06)
100           (-10.0591 -10.0591 -1.14627e+07) (-10.0591 -10.0591 -1.14627e+07) (-10.0591 -10.0591 -1.14627e+07) (-10.013 -10.013 -1.06587e+07) (-10.013 -10.013 -1.06587e+07) (-4.96127 -4.96127 -9.38737e+06) (-4.96127 -4.96127 -9.38737e+06) (1.20465 1.20464 -8.07978e+06) (1.20465 1.20464 -8.07978e+06) (3.50533 3.50533 -7.29854e+06) (3.50533 3.50533 -7.29854e+06)
150           (-2.20073 -2.20073 -1.04179e+07) (-2.20073 -2.20073 -1.04179e+07) (-2.20073 -2.20073 -1.04179e+07) (-2.61233 -2.61233 -1.0089e+07) (-2.61233 -2.61233 -1.0089e+07) (-2.32803 -2.32803 -9.5244e+06) (-2.32803 -2.32803 -9.5244e+06) (-1.69542 -1.69542 -8.81389e+06) (-1.69542 -1.69542 -8.81389e+06) (-0.416401 -0.416401 -8.17338e+06) (-0.416401 -0.416401 -8.17338e+06)
200           (-6.44847 -6.44847 -9.9282e+06) (-6.44847 -6.44847 -9.9282e+06) (-6.44847 -6.44847 -9.9282e+06) (-6.63157 -6.63157 -9.76573e+06) (-6.63157 -6.63157 -9.76573e+06) (-4.22204 -4.22204 -9.4804e+06) (-4.22204 -4.22204 -9.4804e+06) (-0.12302 -0.12302 -9.10038e+06) (-0.12302 -0.12302 -9.10038e+06) (3.74084 3.74084 -8.71447e+06) (3.74084 3.74084 -8.71447e+06)
250           (-3.56386 -3.56386 -9.67388e+06) (-3.56386 -3.56386 -9.67388e+06) (-3.56386 -3.56386 -9.67388e+06) (-3.73881 -3.73881 -9.58839e+06) (-3.73881 -3.73881 -9.58839e+06) (-2.49272 -2.49272 -9.43762e+06) (-2.49272 -2.49272 -9.43762e+06) (-0.210207 -0.210207 -9.23421e+06) (-0.210207 -0.210207 -9.23421e+06) (2.1222 2.1222 -9.02026e+06) (2.1222 2.1222 -9.02026e+06)
300           (3.35159 3.35159 -9.53795e+06) (3.35159 3.35159 -9.53795e+06) (3.35159 3.35159 -9.53795e+06) (3.88602 3.88602 -9.49226e+06) (3.88602 3.88602 -9.49226e+06) (3.14625 3.14625 -9.41173e+06) (3.14625 3.14625 -9.41173e+06) (1.23294 1.23294 -9.30296e+06) (1.23294 1.23294 -9.30296e+06) (-1.53378 -1.53378 -9.18755e+06) (-1.53378 -1.53378 -9.18755e+06)
350           (1.16906 1.16906 -9.465e+06) (1.16906 1.16906 -9.465e+06) (1.16906 1.16906 -9.465e+06) (1.38737 1.38737 -9.44054e+06) (1.38737 1.38737 -9.44054e+06) (1.16053 1.16053 -9.3975e+06) (1.16053 1.16053 -9.3975e+06) (0.505614 0.505615 -9.33945e+06) (0.505614 0.505615 -9.33945e+06) (-0.515785 -0.515785 -9.27778e+06) (-0.515785 -0.515785 -9.27778e+06)
400           (-7.61385 -7.61385 -9.42589e+06) (-7.61385 -7.61385 -9.42589e+06) (-7.61385 -7.61385 -9.42589e+06) (-8.67867 -8.67867 -9.41283e+06) (-8.67867 -8.67867 -9.41283e+06) (-6.78307 -6.78307 -9.38988e+06) (-6.78307 -6.78307 -9.38988e+06) (-2.30319 -2.30319 -9.35897e+06) (-2.30319 -2.30319 -9.35897e+06) (3.54613 3.54613 -9.32616e+06) (3.54613 3.54613 -9.32616e+06)
450           (-1.99103 -1.99103 -9.40506e+06) (-1.99103 -1.99103 -9.40506e+06) (-1.99103 -1.99103 -9.40506e+06) (-2.05126 -2.05126 -9.39808e+06) (-2.05126 -2.05126 -9.39808e+06) (-1.33317 -1.33316 -9.38584e+06) (-1.33317 -1.33316 -9.38584e+06) (-0.0208296 -0.0208311 -9.36936e+06) (-0.0208296 -0.0208311 -9.36936e+06) (1.43228 1.43228 -9.3519e+06) (1.43228 1.43228 -9.3519e+06)
500           (-0.0249251 -0.0249692 -9.39396e+06) (-0.0249251 -0.0249692 -9.39396e+06) (-0.0249251 -0.0249692 -9.39396e+06) (0.0529279 0.0528815 -9.39024e+06) (0.0529279 0.0528815 -9.39024e+06) (0.188042 0.188334 -9.3837e+06) (0.188042 0.188334 -9.3837e+06) (0.459523 0.459487 -9.37491e+06) (0.459523 0.459487 -9.37491e+06) (0.803148 0.803139 -9.36559e+06) (0.803148 0.803139 -9.36559e+06)
550           (0.130945 0.130911 -9.38832e+06) (0.130945 0.130911 -9.38832e+06) (0.130945 0.130911 -9.38832e+06) (-0.0762121 -0.0762344 -9.38623e+06) (-0.0762121 -0.0762344 -9.38623e+06) (-0.252932 -0.252734 -9.38257e+06) (-0.252932 -0.252734 -9.38257e+06) (-0.0229236 -0.0229337 -9.3777e+06) (-0.0229236 -0.0229337 -9.3777e+06) (0.716635 0.716627 -9.37261e+06) (0.716635 0.716627 -9.37261e+06)
600           (-1.48495 -1.48492 -9.38529e+06) (-1.48495 -1.48492 -9.38529e+06) (-1.48495 -1.48492 -9.38529e+06) (-1.07759 -1.07759 -9.38405e+06) (-1.07759 -1.07759 -9.38405e+06) (-0.0657301 -0.0658913 -9.38194e+06) (-0.0657301 -0.0658913 -9.38194e+06) (0.816316 0.816319 -9.3792e+06) (0.816316 0.816319 -9.3792e+06) (0.782827 0.782834 -9.37641e+06) (0.782827 0.782834 -9.37641e+06)
650           (-1.24568 -1.24567 -9.3837e+06) (-1.24568 -1.24567 -9.3837e+06) (-1.24568 -1.24567 -9.3837e+06) (-1.00138 -1.00142 -9.38291e+06) (-1.00138 -1.00142 -9.38291e+06) (-0.109626 -0.109718 -9.38162e+06) (-0.109626 -0.109718 -9.38162e+06) (0.830116 0.830115 -9.37998e+06) (0.830116 0.830115 -9.37998e+06) (0.862762 0.862767 -9.37839e+06) (0.862762 0.862767 -9.37839e+06)
700           (-0.130847 -0.130842 -9.38305e+06) (-0.130847 -0.130842 -9.38305e+06) (-0.130847 -0.130842 -9.38305e+06) (-0.28109 -0.281033 -9.38245e+06) (-0.28109 -0.281033 -9.38245e+06) (-0.57693 -0.576878 -9.38149e+06) (-0.57693 -0.576878 -9.38149e+06) (-0.681236 -0.681232 -9.38031e+06) (-0.681236 -0.681232 -9.38031e+06) (0.112152 0.112148 -9.3792e+06) (0.112152 0.112148 -9.3792e+06)
750           (-0.16756 -0.167552 -9.3828e+06) (-0.16756 -0.167552 -9.3828e+06) (-0.16756 -0.167552 -9.3828e+06) (-0.299121 -0.299057 -9.38226e+06) (-0.299121 -0.299057 -9.38226e+06) (-0.569371 -0.569338 -9.38142e+06) (-0.569371 -0.569338 -9.38142e+06) (-0.70107 -0.701064 -9.38042e+06) (-0.70107 -0.701064 -9.38042e+06) (0.0546381 0.0546344 -9.37953e+06) (0.0546381 0.0546344 -9.37953e+06)
800           (-0.862502 -0.862511 -9.38269e+06) (-0.862502 -0.862511 -9.38269e+06) (-0.862502 -0.862511 -9.38269e+06) (-0.720725 -0.720789 -9.38217e+06) (-0.720725 -0.720789 -9.38217e+06) (-0.0359182 -0.0359372 -9.38136e+06) (-0.0359182 -0.0359372 -9.38136e+06) (0.881211 0.881203 -9.38044e+06) (0.881211 0.881203 -9.38044e+06) (0.952946 0.952949 -9.37971e+06) (0.952946 0.952949 -9.37971e+06)
850           (-0.862502 -0.862511 -9.38269e+06) (-0.862502 -0.862511 -9.38269e+06) (-0.862502 -0.862511 -9.38269e+06) (-0.720725 -0.720789 -9.38217e+06) (-0.720725 -0.720789 -9.38217e+06) (-0.0359182 -0.0359372 -9.38136e+06) (-0.0359182 -0.0359372 -9.38136e+06) (0.881211 0.881203 -9.38044e+06) (0.881211 0.881203 -9.38044e+06) (0.952946 0.952949 -9.37971e+06) (0.952946 0.952949 -9.37971e+06)
900           (-0.862502 -0.862511 -9.38269e+06) (-0.862502 -0.862511 -9.38269e+06) (-0.862502 -0.862511 -9.38269e+06) (-0.720725 -0.720789 -9.38217e+06) (-0.720725 -0.720789 -9.38217e+06) (-0.0359182 -0.0359372 -9.38136e+06) (-0.0359182 -0.0359372 -9.38136e+06) (0.881211 0.881203 -9.38044e+06) (0.881211 0.881203 -9.38044e+06) (0.952946 0.952949 -9.37971e+06) (0.952946 0.952949 -9.37971e+06)
950           (-0.862502 -0.862511 -9.38269e+06) (-0.862502 -0.862511 -9.38269e+06) (-0.862502 -0.862511 -9.38269e+06) (-0.720725 -0.720789 -9.38217e+06) (-0.720725 -0.720789 -9.38217e+06) (-0.0359182 -0.0359372 -9.38136e+06) (-0.0359182 -0.0359372 -9.38136e+06) (0.881211 0.881203 -9.38044e+06) (0.881211 0.881203 -9.38044e+06) (0.952946 0.952949 -9.37971e+06) (0.952946 0.952949 -9.37971e+06)
1000          (-0.862502 -0.862511 -9.38269e+06) (-0.862502 -0.862511 -9.38269e+06) (-0.862502 -0.862511 -9.38269e+06) (-0.720725 -0.720789 -9.38217e+06) (-0.720725 -0.720789 -9.38217e+06) (-0.0359182 -0.0359372 -9.38136e+06) (-0.0359182 -0.0359372 -9.38136e+06) (0.881211 0.881203 -9.38044e+06) (0.881211 0.881203 -9.38044e+06) (0.952946 0.952949 -9.37971e+06) (0.952946 0.952949 -9.37971e+06)
1050          (-0.862502 -0.862511 -9.38269e+06) (-0.862502 -0.862511 -9.38269e+06) (-0.862502 -0.862511 -9.38269e+06) (-0.720725 -0.720789 -9.38217e+06) (-0.720725 -0.720789 -9.38217e+06) (-0.0359182 -0.0359372 -9.38136e+06) (-0.0359182 -0.0359372 -9.38136e+06) (0.881211 0.881203 -9.38044e+06) (0.881211 0.881203 -9.38044e+06) (0.952946 0.952949 -9.37971e+06) (0.952946 0.952949 -9.37971e+06)
1100          (-0.862502 -0.862511 -9.38269e+06) (-0.862502 -0.862511 -9.38269e+06) (-0.862502 -0.862511 -9.38269e+06) (-0.720725 -0.720789 -9.38217e+06) (-0.720725 -0.720789 -9.38217e+06) (-0.0359182 -0.0359372 -9.38136e+06) (-0.0359182 -0.0359372 -9.38136e+06) (0.881211 0.881203 -9.38044e+06) (0.881211 0.881203 -9.38044e+06) (0.952946 0.952949 -9.37971e+06) (0.952946 0.952949 -9.37971e+06)
1150          (-0.862502 -0.862511 -9.38269e+06) (-0.862502 -0.862511 -9.38269e+06) (-0.862502 -0.862511 -9.38269e+06) (-0.720725 -0.720789 -9.38217e+06) (-0.720725 -0.720789 -9.38217e+06) (-0.0359182 -0.0359372 -9.38136e+06) (-0.0359182 -0.0359372 -9.38136e+06) (0.881211 0.881203 -9.38044e+06) (0.881211 0.881203 -9.38044e+06) (0.952946 0.952949 -9.37971e+06) (0.952946 0.952949 -9.37971e+06)
1200          (-0.862502 -0.862511 -9.38269e+06) (-0.862502 -0.862511 -9.38269e+06) (-0.862502 -0.862511 -9.38269e+06) (-0.720725 -0.720789 -9.38217e+06) (-0.720725 -0.720789 -9.38217e+06) (-0.0359182 -0.0359372 -9.38136e+06) (-0.0359182 -0.0359372 -9.38136e+06) (0.881211 0.881203 -9.38044e+06) (0.881211 0.881203 -9.38044e+06) (0.952946 0.952949 -9.37971e+06) (0.952946 0.952949 -9.37971e+06)
1250          (-0.862502 -0.862511 -9.38269e+06) (-0.862502 -0.862511 -9.38269e+06) (-0.862502 -0.862511 -9.38269e+06) (-0.720725 -0.720789 -9.38217e+06) (-0.720725 -0.720789 -9.38217e+06) (-0.0359182 -0.0359372 -9.38136e+06) (-0.0359182 -0.0359372 -9.38136e+06) (0.881211 0.881203 -9.38044e+06) (0.881211 0.881203 -9.38044e+06) (0.952946 0.952949 -9.37971e+06) (0.952946 0.952949 -9.37971e+06)
1300          (-0.862502 -0.862511 -9.38269e+06) (-0.862502 -0.862511 -9.38269e+06) (-0.862502 -0.862511 -9.38269e+06) (-0.720725 -0.720789 -9.38217e+06) (-0.720725 -0.720789 -9.38217e+06) (-0.0359182 -0.0359372 -9.38136e+06) (-0.0359182 -0.0359372 -9.38136e+06) (0.881211 0.881203 -9.38044e+06) (0.881211 0.881203 -9.38044e+06) (0.952946 0.952949 -9.37971e+06) (0.952946 0.952949 -9.37971e+06)
1350          (-0.862502 -0.862511 -9.38269e+06) (-0.862502 -0.862511 -9.38269e+06) (-0.862502 -0.862511 -9.38269e+06) (-0.720725 -0.720789 -9.38217e+06) (-0.720725 -0.720789 -9.38217e+06) (-0.0359182 -0.0359372 -9.38136e+06) (-0.0359182 -0.0359372 -9.38136e+06) (0.881211 0.881203 -9.38044e+06) (0.881211 0.881203 -9.38044e+06) (0.952946 0.952949 -9.37971e+06) (0.952946 0.952949 -9.37971e+06)
1400          (-0.862502 -0.862511 -9.38269e+06) (-0.862502 -0.862511 -9.38269e+06) (-0.862502 -0.862511 -9.38269e+06) (-0.720725 -0.720789 -9.38217e+06) (-0.720725 -0.720789 -9.38217e+06) (-0.0359182 -0.0359372 -9.38136e+06) (-0.0359182 -0.0359372 -9.38136e+06) (0.881211 0.881203 -9.38044e+06) (0.881211 0.881203 -9.38044e+06) (0.952946 0.952949 -9.37971e+06) (0.952946 0.952949 -9.37971e+06)
1450          (-0.862502 -0.862511 -9.38269e+06) (-0.862502 -0.862511 -9.38269e+06) (-0.862502 -0.862511 -9.38269e+06) (-0.720725 -0.720789 -9.38217e+06) (-0.720725 -0.720789 -9.38217e+06) (-0.0359182 -0.0359372 -9.38136e+06) (-0.0359182 -0.0359372 -9.38136e+06) (0.881211 0.881203 -9.38044e+06) (0.881211 0.881203 -9.38044e+06) (0.952946 0.952949 -9.37971e+06) (0.952946 0.952949 -9.37971e+06)
1500          (-0.862502 -0.862511 -9.38269e+06) (-0.862502 -0.862511 -9.38269e+06) (-0.862502 -0.862511 -9.38269e+06) (-0.720725 -0.720789 -9.38217e+06) (-0.720725 -0.720789 -9.38217e+06) (-0.0359182 -0.0359372 -9.38136e+06) (-0.0359182 -0.0359372 -9.38136e+06) (0.881211 0.881203 -9.38044e+06) (0.881211 0.881203 -9.38044e+06) (0.952946 0.952949 -9.37971e+06) (0.952946 0.952949 -9.37971e+06)
1550          (-0.862502 -0.862511 -9.38269e+06) (-0.862502 -0.862511 -9.38269e+06) (-0.862502 -0.862511 -9.38269e+06) (-0.720725 -0.720789 -9.38217e+06) (-0.720725 -0.720789 -9.38217e+06) (-0.0359182 -0.0359372 -9.38136e+06) (-0.0359182 -0.0359372 -9.38136e+06) (0.881211 0.881203 -9.38044e+06) (0.881211 0.881203 -9.38044e+06) (0.952946 0.952949 -9.37971e+06) (0.952946 0.952949 -9.37971e+06)
1600          (-0.862502 -0.862511 -9.38269e+06) (-0.862502 -0.862511 -9.38269e+06) (-0.862502 -0.862511 -9.38269e+06) (-0.720725 -0.720789 -9.38217e+06) (-0.720725 -0.720789 -9.38217e+06) (-0.0359182 -0.0359372 -9.38136e+06) (-0.0359182 -0.0359372 -9.38136e+06) (0.881211 0.881203 -9.38044e+06) (0.881211 0.881203 -9.38044e+06) (0.952946 0.952949 -9.37971e+06) (0.952946 0.952949 -9.37971e+06)
1650          (-0.862502 -0.862511 -9.38269e+06) (-0.862502 -0.862511 -9.38269e+06) (-0.862502 -0.862511 -9.38269e+06) (-0.720725 -0.720789 -9.38217e+06) (-0.720725 -0.720789 -9.38217e+06) (-0.0359182 -0.0359372 -9.38136e+06) (-0.0359182 -0.0359372 -9.38136e+06) (0.881211 0.881203 -9.38044e+06) (0.881211 0.881203 -9.38044e+06) (0.952946 0.952949 -9.37971e+06) (0.952946 0.952949 -9.37971e+06)
1700          (-0.862502 -0.862511 -9.38269e+06) (-0.862502 -0.862511 -9.38269e+06) (-0.862502 -0.862511 -9.38269e+06) (-0.720725 -0.720789 -9.38217e+06) (-0.720725 -0.720789 -9.38217e+06) (-0.0359182 -0.0359372 -9.38136e+06) (-0.0359182 -0.0359372 -9.38136e+06) (0.881211 0.881203 -9.38044e+06) (0.881211 0.881203 -9.38044e+06) (0.952946 0.952949 -9.37971e+06) (0.952946 0.952949 -9.37971e+06)
1750          (-0.862502 -0.862511 -9.38269e+06) (-0.862502 -0.862511 -9.38269e+06) (-0.862502 -0.862511 -9.38269e+06) (-0.720725 -0.720789 -9.38217e+06) (-0.720725 -0.720789 -9.38217e+06) (-0.0359182 -0.0359372 -9.38136e+06) (-0.0359182 -0.0359372 -9.38136e+06) (0.881211 0.881203 -9.38044e+06) (0.881211 0.881203 -9.38044e+06) (0.952946 0.952949 -9.37971e+06) (0.952946 0.952949 -9.37971e+06)
1800          (-0.862502 -0.862511 -9.38269e+06) (-0.862502 -0.862511 -9.38269e+06) (-0.862502 -0.862511 -9.38269e+06) (-0.720725 -0.720789 -9.38217e+06) (-0.720725 -0.720789 -9.38217e+06) (-0.0359182 -0.0359372 -9.38136e+06) (-0.0359182 -0.0359372 -9.38136e+06) (0.881211 0.881203 -9.38044e+06) (0.881211 0.881203 -9.38044e+06) (0.952946 0.952949 -9.37971e+06) (0.952946 0.952949 -9.37971e+06)
1850          (-0.862502 -0.862511 -9.38269e+06) (-0.862502 -0.862511 -9.38269e+06) (-0.862502 -0.862511 -9.38269e+06) (-0.720725 -0.720789 -9.38217e+06) (-0.720725 -0.720789 -9.38217e+06) (-0.0359182 -0.0359372 -9.38136e+06) (-0.0359182 -0.0359372 -9.38136e+06) (0.881211 0.881203 -9.38044e+06) (0.881211 0.881203 -9.38044e+06) (0.952946 0.952949 -9.37971e+06) (0.952946 0.952949 -9.37971e+06)
1900          (-0.862502 -0.862511 -9.38269e+06) (-0.862502 -0.862511 -9.38269e+06) (-0.862502 -0.862511 -9.38269e+06) (-0.720725 -0.720789 -9.38217e+06) (-0.720725 -0.720789 -9.38217e+06) (-0.0359182 -0.0359372 -9.38136e+06) (-0.0359182 -0.0359372 -9.38136e+06) (0.881211 0.881203 -9.38044e+06) (0.881211 0.881203 -9.38044e+06) (0.952946 0.952949 -9.37971e+06) (0.952946 0.952949 -9.37971e+06)
1950          (-0.862502 -0.862511 -9.38269e+06) (-0.862502 -0.862511 -9.38269e+06) (-0.862502 -0.862511 -9.38269e+06) (-0.720725 -0.720789 -9.38217e+06) (-0.720725 -0.720789 -9.38217e+06) (-0.0359182 -0.0359372 -9.38136e+06) (-0.0359182 -0.0359372 -9.38136e+06) (0.881211 0.881203 -9.38044e+06) (0.881211 0.881203 -9.38044e+06) (0.952946 0.952949 -9.37971e+06) (0.952946 0.952949 -9.37971e+06)
2000          (-0.862502 -0.862511 -9.38269e+06) (-0.862502 -0.862511 -9.38269e+06) (-0.862502 -0.862511 -9.38269e+06) (-0.720725 -0.720789 -9.38217e+06) (-0.720725 -0.720789 -9.38217e+06) (-0.0359182 -0.0359372 -9.38136e+06) (-0.0359182 -0.0359372 -9.38136e+06) (0.881211 0.881203 -9.38044e+06) (0.881211 0.881203 -9.38044e+06) (0.952946 0.952949 -9.37971e+06) (0.952946 0.952949 -9.37971e+06)
2050          (-0.862502 -0.862511 -9.38269e+06) (-0.862502 -0.862511 -9.38269e+06) (-0.862502 -0.862511 -9.38269e+06) (-0.720725 -0.720789 -9.38217e+06) (-0.720725 -0.720789 -9.38217e+06) (-0.0359182 -0.0359372 -9.38136e+06) (-0.0359182 -0.0359372 -9.38136e+06) (0.881211 0.881203 -9.38044e+06) (0.881211 0.881203 -9.38044e+06) (0.952946 0.952949 -9.37971e+06) (0.952946 0.952949 -9.37971e+06)
2100          (-0.862502 -0.862511 -9.38269e+06) (-0.862502 -0.862511 -9.38269e+06) (-0.862502 -0.862511 -9.38269e+06) (-0.720725 -0.720789 -9.38217e+06) (-0.720725 -0.720789 -9.38217e+06) (-0.0359182 -0.0359372 -9.38136e+06) (-0.0359182 -0.0359372 -9.38136e+06) (0.881211 0.881203 -9.38044e+06) (0.881211 0.881203 -9.38044e+06) (0.952946 0.952949 -9.37971e+06) (0.952946 0.952949 -9.37971e+06)
2150          (-0.862502 -0.862511 -9.38269e+06) (-0.862502 -0.862511 -9.38269e+06) (-0.862502 -0.862511 -9.38269e+06) (-0.720725 -0.720789 -9.38217e+06) (-0.720725 -0.720789 -9.38217e+06) (-0.0359182 -0.0359372 -9.38136e+06) (-0.0359182 -0.0359372 -9.38136e+06) (0.881211 0.881203 -9.38044e+06) (0.881211 0.881203 -9.38044e+06) (0.952946 0.952949 -9.37971e+06) (0.952946 0.952949 -9.37971e+06)
2200          (-0.862502 -0.862511 -9.38269e+06) (-0.862502 -0.862511 -9.38269e+06) (-0.862502 -0.862511 -9.38269e+06) (-0.720725 -0.720789 -9.38217e+06) (-0.720725 -0.720789 -9.38217e+06) (-0.0359182 -0.0359372 -9.38136e+06) (-0.0359182 -0.0359372 -9.38136e+06) (0.881211 0.881203 -9.38044e+06) (0.881211 0.881203 -9.38044e+06) (0.952946 0.952949 -9.37971e+06) (0.952946 0.952949 -9.37971e+06)
2250          (-0.862502 -0.862511 -9.38269e+06) (-0.862502 -0.862511 -9.38269e+06) (-0.862502 -0.862511 -9.38269e+06) (-0.720725 -0.720789 -9.38217e+06) (-0.720725 -0.720789 -9.38217e+06) (-0.0359182 -0.0359372 -9.38136e+06) (-0.0359182 -0.0359372 -9.38136e+06) (0.881211 0.881203 -9.38044e+06) (0.881211 0.881203 -9.38044e+06) (0.952946 0.952949 -9.37971e+06) (0.952946 0.952949 -9.37971e+06)
2300          (-0.862502 -0.862511 -9.38269e+06) (-0.862502 -0.862511 -9.38269e+06) (-0.862502 -0.862511 -9.38269e+06) (-0.720725 -0.720789 -9.38217e+06) (-0.720725 -0.720789 -9.38217e+06) (-0.0359182 -0.0359372 -9.38136e+06) (-0.0359182 -0.0359372 -9.38136e+06) (0.881211 0.881203 -9.38044e+06) (0.881211 0.881203 -9.38044e+06) (0.952946 0.952949 -9.37971e+06) (0.952946 0.952949 -9.37971e+06)
2350          (-0.862502 -0.862511 -9.38269e+06) (-0.862502 -0.862511 -9.38269e+06) (-0.862502 -0.862511 -9.38269e+06) (-0.720725 -0.720789 -9.38217e+06) (-0.720725 -0.720789 -9.38217e+06) (-0.0359182 -0.0359372 -9.38136e+06) (-0.0359182 -0.0359372 -9.38136e+06) (0.881211 0.881203 -9.38044e+06) (0.881211 0.881203 -9.38044e+06) (0.952946 0.952949 -9.37971e+06) (0.952946 0.952949 -9.37971e+06)
2400          (-0.862502 -0.862511 -9.38269e+06) (-0.862502 -0.862511 -9.38269e+06) (-0.862502 -0.862511 -9.38269e+06) (-0.720725 -0.720789 -9.38217e+06) (-0.720725 -0.720789 -9.38217e+06) (-0.0359182 -0.0359372 -9.38136e+06) (-0.0359182 -0.0359372 -9.38136e+06) (0.881211 0.881203 -9.38044e+06) (0.881211 0.881203 -9.38044e+06) (0.952946 0.952949 -9.37971e+06) (0.952946 0.952949 -9.37971e+06)
2450          (-0.862502 -0.862511 -9.38269e+06) (-0.862502 -0.862511 -9.38269e+06) (-0.862502 -0.862511 -9.38269e+06) (-0.720725 -0.720789 -9.38217e+06) (-0.720725 -0.720789 -9.38217e+06) (-0.0359182 -0.0359372 -9.38136e+06) (-0.0359182 -0.0359372 -9.38136e+06) (0.881211 0.881203 -9.38044e+06) (0.881211 0.881203 -9.38044e+06) (0.952946 0.952949 -9.37971e+06) (0.952946 0.952949 -9.37971e+06)
2500          (-0.862502 -0.862511 -9.38269e+06) (-0.862502 -0.862511 -9.38269e+06) (-0.862502 -0.862511 -9.38269e+06) (-0.720725 -0.720789 -9.38217e+06) (-0.720725 -0.720789 -9.38217e+06) (-0.0359182 -0.0359372 -9.38136e+06) (-0.0359182 -0.0359372 -9.38136e+06) (0.881211 0.881203 -9.38044e+06) (0.881211 0.881203 -9.38044e+06) (0.952946 0.952949 -9.37971e+06) (0.952946 0.952949 -9.37971e+06)
2550          (-0.862502 -0.862511 -9.38269e+06) (-0.862502 -0.862511 -9.38269e+06) (-0.862502 -0.862511 -9.38269e+06) (-0.720725 -0.720789 -9.38217e+06) (-0.720725 -0.720789 -9.38217e+06) (-0.0359182 -0.0359372 -9.38136e+06) (-0.0359182 -0.0359372 -9.38136e+06) (0.881211 0.881203 -9.38044e+06) (0.881211 0.881203 -9.38044e+06) (0.952946 0.952949 -9.37971e+06) (0.952946 0.952949 -9.37971e+06)
2600          (-0.862502 -0.862511 -9.38269e+06) (-0.862502 -0.862511 -9.38269e+06) (-0.862502 -0.862511 -9.38269e+06) (-0.720725 -0.720789 -9.38217e+06) (-0.720725 -0.720789 -9.38217e+06) (-0.0359182 -0.0359372 -9.38136e+06) (-0.0359182 -0.0359372 -9.38136e+06) (0.881211 0.881203 -9.38044e+06) (0.881211 0.881203 -9.38044e+06) (0.952946 0.952949 -9.37971e+06) (0.952946 0.952949 -9.37971e+06)
2650          (-0.862502 -0.862511 -9.38269e+06) (-0.862502 -0.862511 -9.38269e+06) (-0.862502 -0.862511 -9.38269e+06) (-0.720725 -0.720789 -9.38217e+06) (-0.720725 -0.720789 -9.38217e+06) (-0.0359182 -0.0359372 -9.38136e+06) (-0.0359182 -0.0359372 -9.38136e+06) (0.881211 0.881203 -9.38044e+06) (0.881211 0.881203 -9.38044e+06) (0.952946 0.952949 -9.37971e+06) (0.952946 0.952949 -9.37971e+06)
2700          (-0.862502 -0.862511 -9.38269e+06) (-0.862502 -0.862511 -9.38269e+06) (-0.862502 -0.862511 -9.38269e+06) (-0.720725 -0.720789 -9.38217e+06) (-0.720725 -0.720789 -9.38217e+06) (-0.0359182 -0.0359372 -9.38136e+06) (-0.0359182 -0.0359372 -9.38136e+06) (0.881211 0.881203 -9.38044e+06) (0.881211 0.881203 -9.38044e+06) (0.952946 0.952949 -9.37971e+06) (0.952946 0.952949 -9.37971e+06)
2750          (-0.862502 -0.862511 -9.38269e+06) (-0.862502 -0.862511 -9.38269e+06) (-0.862502 -0.862511 -9.38269e+06) (-0.720725 -0.720789 -9.38217e+06) (-0.720725 -0.720789 -9.38217e+06) (-0.0359182 -0.0359372 -9.38136e+06) (-0.0359182 -0.0359372 -9.38136e+06) (0.881211 0.881203 -9.38044e+06) (0.881211 0.881203 -9.38044e+06) (0.952946 0.952949 -9.37971e+06) (0.952946 0.952949 -9.37971e+06)
2800          (-0.862502 -0.862511 -9.38269e+06) (-0.862502 -0.862511 -9.38269e+06) (-0.862502 -0.862511 -9.38269e+06) (-0.720725 -0.720789 -9.38217e+06) (-0.720725 -0.720789 -9.38217e+06) (-0.0359182 -0.0359372 -9.38136e+06) (-0.0359182 -0.0359372 -9.38136e+06) (0.881211 0.881203 -9.38044e+06) (0.881211 0.881203 -9.38044e+06) (0.952946 0.952949 -9.37971e+06) (0.952946 0.952949 -9.37971e+06)
2850          (-0.862502 -0.862511 -9.38269e+06) (-0.862502 -0.862511 -9.38269e+06) (-0.862502 -0.862511 -9.38269e+06) (-0.720725 -0.720789 -9.38217e+06) (-0.720725 -0.720789 -9.38217e+06) (-0.0359182 -0.0359372 -9.38136e+06) (-0.0359182 -0.0359372 -9.38136e+06) (0.881211 0.881203 -9.38044e+06) (0.881211 0.881203 -9.38044e+06) (0.952946 0.952949 -9.37971e+06) (0.952946 0.952949 -9.37971e+06)
2900          (-0.862502 -0.862511 -9.38269e+06) (-0.862502 -0.862511 -9.38269e+06) (-0.862502 -0.862511 -9.38269e+06) (-0.720725 -0.720789 -9.38217e+06) (-0.720725 -0.720789 -9.38217e+06) (-0.0359182 -0.0359372 -9.38136e+06) (-0.0359182 -0.0359372 -9.38136e+06) (0.881211 0.881203 -9.38044e+06) (0.881211 0.881203 -9.38044e+06) (0.952946 0.952949 -9.37971e+06) (0.952946 0.952949 -9.37971e+06)
2950          (-0.862502 -0.862511 -9.38269e+06) (-0.862502 -0.862511 -9.38269e+06) (-0.862502 -0.862511 -9.38269e+06) (-0.720725 -0.720789 -9.38217e+06) (-0.720725 -0.720789 -9.38217e+06) (-0.0359182 -0.0359372 -9.38136e+06) (-0.0359182 -0.0359372 -9.38136e+06) (0.881211 0.881203 -9.38044e+06) (0.881211 0.881203 -9.38044e+06) (0.952946 0.952949 -9.37971e+06) (0.952946 0.952949 -9.37971e+06)
3000          (-0.862502 -0.862511 -9.38269e+06) (-0.862502 -0.862511 -9.38269e+06) (-0.862502 -0.862511 -9.38269e+06) (-0.720725 -0.720789 -9.38217e+06) (-0.720725 -0.720789 -9.38217e+06) (-0.0359182 -0.0359372 -9.38136e+06) (-0.0359182 -0.0359372 -9.38136e+06) (0.881211 0.881203 -9.38044e+06) (0.881211 0.881203 -9.38044e+06) (0.952946 0.952949 -9.37971e+06) (0.952946 0.952949 -9.37971e+06)
3050          (-0.862502 -0.862511 -9.38269e+06) (-0.862502 -0.862511 -9.38269e+06) (-0.862502 -0.862511 -9.38269e+06) (-0.720725 -0.720789 -9.38217e+06) (-0.720725 -0.720789 -9.38217e+06) (-0.0359182 -0.0359372 -9.38136e+06) (-0.0359182 -0.0359372 -9.38136e+06) (0.881211 0.881203 -9.38044e+06) (0.881211 0.881203 -9.38044e+06) (0.952946 0.952949 -9.37971e+06) (0.952946 0.952949 -9.37971e+06)
3100          (-0.862502 -0.862511 -9.38269e+06) (-0.862502 -0.862511 -9.38269e+06) (-0.862502 -0.862511 -9.38269e+06) (-0.720725 -0.720789 -9.38217e+06) (-0.720725 -0.720789 -9.38217e+06) (-0.0359182 -0.0359372 -9.38136e+06) (-0.0359182 -0.0359372 -9.38136e+06) (0.881211 0.881203 -9.38044e+06) (0.881211 0.881203 -9.38044e+06) (0.952946 0.952949 -9.37971e+06) (0.952946 0.952949 -9.37971e+06)
3150          (-0.862502 -0.862511 -9.38269e+06) (-0.862502 -0.862511 -9.38269e+06) (-0.862502 -0.862511 -9.38269e+06) (-0.720725 -0.720789 -9.38217e+06) (-0.720725 -0.720789 -9.38217e+06) (-0.0359182 -0.0359372 -9.38136e+06) (-0.0359182 -0.0359372 -9.38136e+06) (0.881211 0.881203 -9.38044e+06) (0.881211 0.881203 -9.38044e+06) (0.952946 0.952949 -9.37971e+06) (0.952946 0.952949 -9.37971e+06)
3200          (-0.862502 -0.862511 -9.38269e+06) (-0.862502 -0.862511 -9.38269e+06) (-0.862502 -0.862511 -9.38269e+06) (-0.720725 -0.720789 -9.38217e+06) (-0.720725 -0.720789 -9.38217e+06) (-0.0359182 -0.0359372 -9.38136e+06) (-0.0359182 -0.0359372 -9.38136e+06) (0.881211 0.881203 -9.38044e+06) (0.881211 0.881203 -9.38044e+06) (0.952946 0.952949 -9.37971e+06) (0.952946 0.952949 -9.37971e+06)
3250          (-0.862502 -0.862511 -9.38269e+06) (-0.862502 -0.862511 -9.38269e+06) (-0.862502 -0.862511 -9.38269e+06) (-0.720725 -0.720789 -9.38217e+06) (-0.720725 -0.720789 -9.38217e+06) (-0.0359182 -0.0359372 -9.38136e+06) (-0.0359182 -0.0359372 -9.38136e+06) (0.881211 0.881203 -9.38044e+06) (0.881211 0.881203 -9.38044e+06) (0.952946 0.952949 -9.37971e+06) (0.952946 0.952949 -9.37971e+06)
3300          (-0.862502 -0.862511 -9.38269e+06) (-0.862502 -0.862511 -9.38269e+06) (-0.862502 -0.862511 -9.38269e+06) (-0.720725 -0.720789 -9.38217e+06) (-0.720725 -0.720789 -9.38217e+06) (-0.0359182 -0.0359372 -9.38136e+06) (-0.0359182 -0.0359372 -9.38136e+06) (0.881211 0.881203 -9.38044e+06) (0.881211 0.881203 -9.38044e+06) (0.952946 0.952949 -9.37971e+06) (0.952946 0.952949 -9.37971e+06)
3350          (-0.862502 -0.862511 -9.38269e+06) (-0.862502 -0.862511 -9.38269e+06) (-0.862502 -0.862511 -9.38269e+06) (-0.720725 -0.720789 -9.38217e+06) (-0.720725 -0.720789 -9.38217e+06) (-0.0359182 -0.0359372 -9.38136e+06) (-0.0359182 -0.0359372 -9.38136e+06) (0.881211 0.881203 -9.38044e+06) (0.881211 0.881203 -9.38044e+06) (0.952946 0.952949 -9.37971e+06) (0.952946 0.952949 -9.37971e+06)
3400          (-0.862502 -0.862511 -9.38269e+06) (-0.862502 -0.862511 -9.38269e+06) (-0.862502 -0.862511 -9.38269e+06) (-0.720725 -0.720789 -9.38217e+06) (-0.720725 -0.720789 -9.38217e+06) (-0.0359182 -0.0359372 -9.38136e+06) (-0.0359182 -0.0359372 -9.38136e+06) (0.881211 0.881203 -9.38044e+06) (0.881211 0.881203 -9.38044e+06) (0.952946 0.952949 -9.37971e+06) (0.952946 0.952949 -9.37971e+06)
3450          (-0.862502 -0.862511 -9.38269e+06) (-0.862502 -0.862511 -9.38269e+06) (-0.862502 -0.862511 -9.38269e+06) (-0.720725 -0.720789 -9.38217e+06) (-0.720725 -0.720789 -9.38217e+06) (-0.0359182 -0.0359372 -9.38136e+06) (-0.0359182 -0.0359372 -9.38136e+06) (0.881211 0.881203 -9.38044e+06) (0.881211 0.881203 -9.38044e+06) (0.952946 0.952949 -9.37971e+06) (0.952946 0.952949 -9.37971e+06)
3500          (-0.862502 -0.862511 -9.38269e+06) (-0.862502 -0.862511 -9.38269e+06) (-0.862502 -0.862511 -9.38269e+06) (-0.720725 -0.720789 -9.38217e+06) (-0.720725 -0.720789 -9.38217e+06) (-0.0359182 -0.0359372 -9.38136e+06) (-0.0359182 -0.0359372 -9.38136e+06) (0.881211 0.881203 -9.38044e+06) (0.881211 0.881203 -9.38044e+06) (0.952946 0.952949 -9.37971e+06) (0.952946 0.952949 -9.37971e+06)
3550          (-0.862502 -0.862511 -9.38269e+06) (-0.862502 -0.862511 -9.38269e+06) (-0.862502 -0.862511 -9.38269e+06) (-0.720725 -0.720789 -9.38217e+06) (-0.720725 -0.720789 -9.38217e+06) (-0.0359182 -0.0359372 -9.38136e+06) (-0.0359182 -0.0359372 -9.38136e+06) (0.881211 0.881203 -9.38044e+06) (0.881211 0.881203 -9.38044e+06) (0.952946 0.952949 -9.37971e+06) (0.952946 0.952949 -9.37971e+06)
3600          (-0.862502 -0.862511 -9.38269e+06) (-0.862502 -0.862511 -9.38269e+06) (-0.862502 -0.862511 -9.38269e+06) (-0.720725 -0.720789 -9.38217e+06) (-0.720725 -0.720789 -9.38217e+06) (-0.0359182 -0.0359372 -9.38136e+06) (-0.0359182 -0.0359372 -9.38136e+06) (0.881211 0.881203 -9.38044e+06) (0.881211 0.881203 -9.38044e+06) (0.952946 0.952949 -9.37971e+06) (0.952946 0.952949 -9.37971e+06)
3650          (-0.862502 -0.862511 -9.38269e+06) (-0.862502 -0.862511 -9.38269e+06) (-0.862502 -0.862511 -9.38269e+06) (-0.720725 -0.720789 -9.38217e+06) (-0.720725 -0.720789 -9.38217e+06) (-0.0359182 -0.0359372 -9.38136e+06) (-0.0359182 -0.0359372 -9.38136e+06) (0.881211 0.881203 -9.38044e+06) (0.881211 0.881203 -9.38044e+06) (0.952946 0.952949 -9.37971e+06) (0.952946 0.952949 -9.37971e+06)
3700          (-0.862502 -0.862511 -9.38269e+06) (-0.862502 -0.862511 -9.38269e+06) (-0.862502 -0.862511 -9.38269e+06) (-0.720725 -0.720789 -9.38217e+06) (-0.720725 -0.720789 -9.38217e+06) (-0.0359182 -0.0359372 -9.38136e+06) (-0.0359182 -0.0359372 -9.38136e+06) (0.881211 0.881203 -9.38044e+06) (0.881211 0.881203 -9.38044e+06) (0.952946 0.952949 -9.37971e+06) (0.952946 0.952949 -9.37971e+06)
3750          (-0.862502 -0.862511 -9.38269e+06) (-0.862502 -0.862511 -9.38269e+06) (-0.862502 -0.862511 -9.38269e+06) (-0.720725 -0.720789 -9.38217e+06) (-0.720725 -0.720789 -9.38217e+06) (-0.0359182 -0.0359372 -9.38136e+06) (-0.0359182 -0.0359372 -9.38136e+06) (0.881211 0.881203 -9.38044e+06) (0.881211 0.881203 -9.38044e+06) (0.952946 0.952949 -9.37971e+06) (0.952946 0.952949 -9.37971e+06)