# Probe 0 (0.0015 0.0015 0)
# Probe 1 (0.0015 0.0015 0.002)
# Probe 2 (0.0015 0.0015 0.004)
# Probe 3 (0.0015 0.0015 0.006)
# Probe 4 (0.0015 0.0015 0.008)
# Probe 5 (0.0015 0.0015 0.01)
# Probe 6 (0.0015 0.0015 0.012)
# Probe 7 (0.0015 0.0015 0.014)
# Probe 8 (0.0015 0.0015 0.016)
# Probe 9 (0.0015 0.0015 0.018)
# Probe 10 (0.0015 0.0015 0.02)
# Time        0             1             2             3             4             5             6             7             8             9             10           
50            (2.59636e-11 2.25354e-11 -3.26873e-11) (2.59636e-11 2.25354e-11 -3.26873e-11) (2.59636e-11 2.25354e-11 -3.26873e-11) (-1.32289e-11 -1.29964e-11 -1.324e-10) (-1.32289e-11 -1.29964e-11 -1.324e-10) (-1.41174e-11 -2.40473e-11 -2.36315e-10) (-1.41174e-11 -2.40473e-11 -2.36315e-10) (-1.08209e-11 -1.20568e-11 -2.96624e-10) (-1.08209e-11 -1.20568e-11 -2.96624e-10) (1.43177e-11 -1.05322e-11 -3.52674e-10) (1.43177e-11 -1.05322e-11 -3.52674e-10)
100           (-1.20055e-11 -9.75724e-12 -1.84026e-11) (-1.20055e-11 -9.75724e-12 -1.84026e-11) (-1.20055e-11 -9.75724e-12 -1.84026e-11) (1.6681e-13 -1.32026e-11 -7.45641e-11) (1.6681e-13 -1.32026e-11 -7.45641e-11) (-1.20003e-11 1.06575e-11 -8.01543e-11) (-1.20003e-11 1.06575e-11 -8.01543e-11) (-1.06941e-12 1.30274e-11 -1.30358e-10) (-1.06941e-12 1.30274e-11 -1.30358e-10) (-1.20134e-11 -1.31021e-11 -2.35564e-10) (-1.20134e-11 -1.31021e-11 -2.35564e-10)
150           (-1.02433e-12 1.30156e-11 -3.74233e-11) (-1.02433e-12 1.30156e-11 -3.74233e-11) (-1.02433e-12 1.30156e-11 -3.74233e-11) (-2.54014e-11 -2.48768e-11 -8.44064e-11) (-2.54014e-11 -2.48768e-11 -8.44064e-11) (9.50206e-13 -1.20257e-11 -7.90442e-11) (9.50206e-13 -1.20257e-11 -7.90442e-11) (1.26021e-12 1.34909e-12 -1.15109e-10) (1.26021e-12 1.34909e-12 -1.15109e-10) (-4.07377e-13 -1.24513e-11 -2.02069e-10) (-4.07377e-13 -1.24513e-11 -2.02069e-10)
200           (-1.00278e-13 2.81434e-14 1.78162e-11) (-1.00278e-13 2.81434e-14 1.78162e-11) (-1.00278e-13 2.81434e-14 1.78162e-11) (-1.08542e-11 -1.1968e-11 4.32663e-11) (-1.08542e-11 -1.1968e-11 4.32663e-11) (-1.04377e-12 1.30583e-11 2.5203e-11) (-1.04377e-12 1.30583e-11 2.5203e-11) (-1.2144e-11 2.25975e-13 7.8185e-14) (-1.2144e-11 2.25975e-13 7.8185e-14) (2.21813e-11 -7.56423e-14 -3.91645e-11) (2.21813e-11 -7.56423e-14 -3.91645e-11)
250           (-1.18027e-11 -1.06133e-11 -5.42947e-12) (-1.18027e-11 -1.06133e-11 -5.42947e-12) (-1.18027e-11 -1.06133e-11 -5.42947e-12) (-1.05633e-11 -1.08795e-11 -2.96282e-11) (-1.05633e-11 -1.08795e-11 -2.96282e-11) (-1.20715e-12 1.0505e-13 -9.99032e-11) (-1.20715e-12 1.0505e-13 -9.99032e-11) (-1.04907e-12 -1.37953e-12 -1.49304e-10) (-1.04907e-12 -1.37953e-12 -1.49304e-10) (2.52227e-11 1.33788e-12 -1.74548e-10) (2.52227e-11 1.33788e-12 -1.74548e-10)
300           (1.07557e-11 1.29842e-11 -4.10912e-11) (1.07557e-11 1.29842e-11 -4.10912e-11) (1.07557e-11 1.29842e-11 -4.10912e-11) (5.9667e-14 1.28091e-11 -8.29628e-11) (5.9667e-14 1.28091e-11 -8.29628e-11) (1.13848e-11 8.95832e-13 -1.37626e-10) (1.13848e-11 8.95832e-13 -1.37626e-10) (-1.06804e-11 -1.18082e-12 -1.92584e-10) (-1.06804e-11 -1.18082e-12 -1.92584e-10) (-2.34226e-12 1.19538e-11 -2.06897e-10) (-2.34226e-12 1.19538e-11 -2.06897e-10)
350           (-2.38198e-11 -8.06015e-13 7.90356e-12) (-2.38198e-11 -8.06015e-13 7.90356e-12) (-2.38198e-11 -8.06015e-13 7.90356e-12) (-1.31269e-11 1.17683e-11 -2.04975e-11) (-1.31269e-11 1.17683e-11 -2.04975e-11) (-1.50653e-12 1.26756e-12 -9.92945e-11) (-1.50653e-12 1.26756e-12 -9.92945e-11) (2.47075e-12 -2.52543e-11 -1.48197e-10) (2.47075e-12 -2.52543e-11 -1.48197e-10) (1.33083e-11 1.17328e-11 -2.37035e-10) (1.33083e-11 1.17328e-11 -2.37035e-10)
400           (1.19152e-11 1.30422e-11 -3.23506e-11) (1.19152e-11 1.30422e-11 -3.23506e-11) (1.19152e-11 1.30422e-11 -3.23506e-11) (-2.10699e-12 -3.96148e-14 -5.75959e-11) (-2.10699e-12 -3.96148e-14 -5.75959e-11) (1.08712e-11 2.42621e-13 -7.37536e-11) (1.08712e-11 2.42621e-13 -7.37536e-11) (2.78683e-14 -2.38191e-11 -7.33726e-11) (2.78683e-14 -2.38191e-11 -7.33726e-11) (1.03672e-12 -1.31005e-11 -1.25156e-10) (1.03672e-12 -1.31005e-11 -1.25156e-10)
450           (2.48371e-11 2.48109e-11 -3.68804e-11) (2.48371e-11 2.48109e-11 -3.68804e-11) (2.48371e-11 2.48109e-11 -3.68804e-11) (-9.66207e-13 1.36032e-13 -8.73901e-11) (-9.66207e-13 1.36032e-13 -8.73901e-11) (-4.82861e-14 1.25838e-12 -1.29177e-10) (-4.82861e-14 1.25838e-12 -1.29177e-10) (2.21986e-12 -9.77589e-12 -1.87627e-10) (2.21986e-12 -9.77589e-12 -1.87627e-10) (6.73837e-14 -1.4088e-11 -2.87452e-10) (6.73837e-14 -1.4088e-11 -2.87452e-10)
500           (1.0022e-13 -1.29513e-11 -3.57623e-11) (1.0022e-13 -1.29513e-11 -3.57623e-11) (1.0022e-13 -1.29513e-11 -3.57623e-11) (-1.15797e-11 -1.0587e-12 -1.15298e-10) (-1.15797e-11 -1.0587e-12 -1.15298e-10) (-1.27814e-14 -2.66133e-13 -2.06738e-10) (-1.27814e-14 -2.66133e-13 -2.06738e-10) (-7.28681e-18 -1.17377e-11 -2.80151e-10) (-7.28681e-18 -1.17377e-11 -2.80151e-10) (-3.55286e-11 -1.23437e-11 -3.22417e-10) (-3.55286e-11 -1.23437e-11 -3.22417e-10)
550           (1.16482e-11 1.06317e-11 -2.96362e-11) (1.16482e-11 1.06317e-11 -2.96362e-11) (1.16482e-11 1.06317e-11 -2.96362e-11) (-1.29175e-11 1.8184e-13 -1.11566e-10) (-1.29175e-11 1.8184e-13 -1.11566e-10) (1.33043e-12 1.04335e-11 -1.77655e-10) (1.33043e-12 1.04335e-11 -1.77655e-10) (1.21122e-11 -1.26635e-11 -1.943e-10) (1.21122e-11 -1.26635e-11 -1.943e-10) (-1.26864e-13 -5.18405e-13 -1.94431e-10) (-1.26864e-13 -5.18405e-13 -1.94431e-10)
600           (-1.1895e-11 1.18124e-11 1.32812e-11) (-1.1895e-11 1.18124e-11 1.32812e-11) (-1.1895e-11 1.18124e-11 1.32812e-11) (-2.24703e-11 1.05077e-11 1.52917e-11) (-2.24703e-11 1.05077e-11 1.52917e-11) (1.32415e-11 1.19484e-11 9.94603e-12) (1.32415e-11 1.19484e-11 9.94603e-12) (1.28906e-11 1.22313e-11 -2.14035e-11) (1.28906e-11 1.22313e-11 -2.14035e-11) (1.07108e-11 1.19031e-11 -6.95356e-11) (1.07108e-11 1.19031e-11 -6.95356e-11)
650           (-1.18137e-11 -1.19771e-11 -6.23731e-11) (-1.18137e-11 -1.19771e-11 -6.23731e-11) (-1.18137e-11 -1.19771e-11 -6.23731e-11) (1.27953e-12 1.62941e-12 -1.42291e-10) (1.27953e-12 1.62941e-12 -1.42291e-10) (1.29824e-12 -1.35153e-12 -1.38e-10) (1.29824e-12 -1.35153e-12 -1.38e-10) (1.19682e-11 1.19796e-11 -9.77315e-11) (1.19682e-11 1.19796e-11 -9.77315e-11) (-9.843e-12 2.87293e-14 -8.94264e-11) (-9.843e-12 2.87293e-14 -8.94264e-11)
700           (8.46905e-14 1.16899e-11 -2.15609e-11) (8.46905e-14 1.16899e-11 -2.15609e-11) (8.46905e-14 1.16899e-11 -2.15609e-11) (-1.10391e-13 -1.32861e-11 -5.6994e-11) (-1.10391e-13 -1.32861e-11 -5.6994e-11) (1.18938e-11 1.17554e-12 -9.45616e-11) (1.18938e-11 1.17554e-12 -9.45616e-11) (-2.40442e-11 1.21225e-11 -1.47576e-10) (-2.40442e-11 1.21225e-11 -1.47576e-10) (-1.918e-13 -1.14038e-13 -1.68835e-10) (-1.918e-13 -1.14038e-13 -1.68835e-10)
750           (1.30089e-11 1.06356e-11 -3.65652e-11) (1.30089e-11 1.06356e-11 -3.65652e-11) (1.30089e-11 1.06356e-11 -3.65652e-11) (8.14133e-14 1.33006e-12 -8.5041e-11) (8.14133e-14 1.33006e-12 -8.5041e-11) (-5.9609e-14 1.98497e-13 -1.26009e-10) (-5.9609e-14 1.98497e-13 -1.26009e-10) (2.25637e-11 -2.6965e-11 -1.71571e-10) (2.25637e-11 -2.6965e-11 -1.71571e-10) (8.84074e-13 -9.36257e-13 -2.16849e-10) (8.84074e-13 -9.36257e-13 -2.16849e-10)
800           (-8.46785e-13 -1.1096e-11 -7.93925e-12) (-8.46785e-13 -1.1096e-11 -7.93925e-12) (-8.46785e-13 -1.1096e-11 -7.93925e-12) (1.28387e-11 -1.2891e-11 -2.11061e-11) (1.28387e-11 -1.2891e-11 -2.11061e-11) (-2.84357e-13 2.35815e-11 -5.43948e-11) (-2.84357e-13 2.35815e-11 -5.43948e-11) (1.61558e-12 -7.34986e-14 -9.365e-11) (1.61558e-12 -7.34986e-14 -9.365e-11) (-1.18276e-11 -1.32494e-11 -1.2084e-10) (-1.18276e-11 -1.32494e-11 -1.2084e-10)
850           (1.3114e-11 1.31736e-11 -8.52722e-12) (1.3114e-11 1.31736e-11 -8.52722e-12) (1.3114e-11 1.31736e-11 -8.52722e-12) (1.28652e-11 9.22696e-13 -1.31494e-11) (1.28652e-11 9.22696e-13 -1.31494e-11) (2.336e-11 1.23665e-12 1.02152e-12) (2.336e-11 1.23665e-12 1.02152e-12) (-1.18737e-11 -1.16014e-11 -3.92636e-11) (-1.18737e-11 -1.16014e-11 -3.92636e-11) (2.33908e-11 -2.62532e-11 -1.14225e-10) (2.33908e-11 -2.62532e-11 -1.14225e-10)
900           (1.40141e-11 -1.15815e-11 -3.61786e-11) (1.40141e-11 -1.15815e-11 -3.61786e-11) (1.40141e-11 -1.15815e-11 -3.61786e-11) (-8.35701e-13 1.18674e-11 -9.34003e-11) (-8.35701e-13 1.18674e-11 -9.34003e-11) (1.00277e-11 -1.4191e-11 -1.34553e-10) (1.00277e-11 -1.4191e-11 -1.34553e-10) (9.97246e-12 1.0887e-11 -2.02173e-10) (9.97246e-12 1.0887e-11 -2.02173e-10) (2.36426e-11 -1.093e-11 -2.80168e-10) (2.36426e-11 -1.093e-11 -2.80168e-10)
950           (-1.1375e-11 -1.0038e-12 -3.33026e-11) (-1.1375e-11 -1.0038e-12 -3.33026e-11) (-1.1375e-11 -1.0038e-12 -3.33026e-11) (-8.97931e-13 -8.20901e-13 -9.99816e-11) (-8.97931e-13 -8.20901e-13 -9.99816e-11) (1.30455e-11 -2.49913e-11 -1.52802e-10) (1.30455e-11 -2.49913e-11 -1.52802e-10) (1.07182e-11 1.18888e-11 -1.72971e-10) (1.07182e-11 1.18888e-11 -1.72971e-10) (-2.49663e-11 -1.40459e-11 -1.75199e-10) (-2.49663e-11 -1.40459e-11 -1.75199e-10)
1000          (1.20643e-11 1.14317e-12 -8.21663e-11) (1.20643e-11 1.14317e-12 -8.21663e-11) (1.20643e-11 1.14317e-12 -8.21663e-11) (1.01608e-13 -3.34734e-13 -1.44471e-10) (1.01608e-13 -3.34734e-13 -1.44471e-10) (-1.36683e-11 -1.24381e-12 -1.15423e-10) (-1.36683e-11 -1.24381e-12 -1.15423e-10) (1.28146e-11 -2.17025e-12 -1.49862e-10) (1.28146e-11 -2.17025e-12 -1.49862e-10) (2.28035e-12 1.18185e-12 -2.79532e-10) (2.28035e-12 1.18185e-12 -2.79532e-10)
1050          (1.18458e-11 -1.31385e-11 -4.15294e-11) (1.18458e-11 -1.31385e-11 -4.15294e-11) (1.18458e-11 -1.31385e-11 -4.15294e-11) (1.4194e-11 1.07382e-11 -7.53766e-11) (1.4194e-11 1.07382e-11 -7.53766e-11) (2.32916e-11 2.62354e-11 -7.60687e-11) (2.32916e-11 2.62354e-11 -7.60687e-11) (2.35922e-11 -3.67365e-11 -1.38916e-10) (2.35922e-11 -3.67365e-11 -1.38916e-10) (2.65357e-12 -2.37671e-11 -2.05903e-10) (2.65357e-12 -2.37671e-11 -2.05903e-10)
1100          (-1.29542e-11 1.20037e-11 -1.21428e-11) (-1.29542e-11 1.20037e-11 -1.21428e-11) (-1.29542e-11 1.20037e-11 -1.21428e-11) (1.25478e-11 2.32104e-12 -4.57234e-11) (1.25478e-11 2.32104e-12 -4.57234e-11) (2.1048e-13 1.31008e-11 -8.17292e-11) (2.1048e-13 1.31008e-11 -8.17292e-11) (-2.28576e-11 2.35422e-11 -1.2561e-10) (-2.28576e-11 2.35422e-11 -1.2561e-10) (-1.18425e-11 -4.43214e-14 -1.72967e-10) (-1.18425e-11 -4.43214e-14 -1.72967e-10)
1150          (1.83888e-13 2.4611e-13 -5.29287e-11) (1.83888e-13 2.4611e-13 -5.29287e-11) (1.83888e-13 2.4611e-13 -5.29287e-11) (1.30863e-11 -1.19161e-11 -1.60758e-10) (1.30863e-11 -1.19161e-11 -1.60758e-10) (1.30242e-11 1.409e-11 -2.36278e-10) (1.30242e-11 1.409e-11 -2.36278e-10) (1.18577e-11 -9.79582e-13 -2.8928e-10) (1.18577e-11 -9.79582e-13 -2.8928e-10) (9.88868e-12 1.44101e-11 -3.15638e-10) (9.88868e-12 1.44101e-11 -3.15638e-10)
1200          (1.19152e-11 1.29142e-11 -3.28426e-11) (1.19152e-11 1.29142e-11 -3.28426e-11) (1.19152e-11 1.29142e-11 -3.28426e-11) (-9.81062e-13 2.48909e-11 -9.73469e-11) (-9.81062e-13 2.48909e-11 -9.73469e-11) (1.21449e-12 -1.19817e-11 -1.43564e-10) (1.21449e-12 -1.19817e-11 -1.43564e-10) (1.31809e-11 -2.24625e-12 -1.50279e-10) (1.31809e-11 -2.24625e-12 -1.50279e-10) (1.59456e-12 -2.37935e-11 -1.62897e-10) (1.59456e-12 -2.37935e-11 -1.62897e-10)
1250          (1.073e-12 -1.26969e-12 -1.44586e-11) (1.073e-12 -1.26969e-12 -1.44586e-11) (1.073e-12 -1.26969e-12 -1.44586e-11) (1.17561e-12 -1.19027e-11 -3.97515e-11) (1.17561e-12 -1.19027e-11 -3.97515e-11) (1.16355e-12 1.37163e-12 -2.2265e-11) (1.16355e-12 1.37163e-12 -2.2265e-11) (2.85939e-13 3.12876e-13 -2.44942e-11) (2.85939e-13 3.12876e-13 -2.44942e-11) (-1.4251e-11 1.28583e-11 -7.89615e-11) (-1.4251e-11 1.28583e-11 -7.89615e-11)
1300          (2.09838e-12 1.30401e-11 -6.52949e-11) (2.09838e-12 1.30401e-11 -6.52949e-11) (2.09838e-12 1.30401e-11 -6.52949e-11) (1.24507e-13 9.39835e-12 -1.50606e-10) (1.24507e-13 9.39835e-12 -1.50606e-10) (-1.28433e-11 -1.31348e-11 -2.02495e-10) (-1.28433e-11 -1.31348e-11 -2.02495e-10) (-7.89347e-14 -1.10551e-11 -2.38532e-10) (-7.89347e-14 -1.10551e-11 -2.38532e-10) (1.34593e-11 -1.29011e-11 -2.76587e-10) (1.34593e-11 -1.29011e-11 -2.76587e-10)
1350          (-1.10313e-11 -1.27836e-12 -2.02556e-11) (-1.10313e-11 -1.27836e-12 -2.02556e-11) (-1.10313e-11 -1.27836e-12 -2.02556e-11) (-1.16484e-12 -1.31344e-11 -8.88623e-11) (-1.16484e-12 -1.31344e-11 -8.88623e-11) (-1.20808e-11 -1.19475e-12 -1.59146e-10) (-1.20808e-11 -1.19475e-12 -1.59146e-10) (-2.15326e-12 -1.32109e-11 -1.99096e-10) (-2.15326e-12 -1.32109e-11 -1.99096e-10) (-2.42634e-14 1.25043e-12 -2.39417e-10) (-2.42634e-14 1.25043e-12 -2.39417e-10)
1400          (-1.11288e-11 1.12715e-12 -1.69838e-12) (-1.11288e-11 1.12715e-12 -1.69838e-12) (-1.11288e-11 1.12715e-12 -1.69838e-12) (-1.25628e-11 1.23178e-11 -1.95824e-11) (-1.25628e-11 1.23178e-11 -1.95824e-11) (1.31507e-11 1.14556e-12 -2.56897e-11) (1.31507e-11 1.14556e-12 -2.56897e-11) (1.38559e-11 1.33726e-11 -5.25713e-11) (1.38559e-11 1.33726e-11 -5.25713e-11) (-1.16017e-11 3.48658e-11 -1.42756e-10) (-1.16017e-11 3.48658e-11 -1.42756e-10)
1450          (-1.18912e-11 1.13708e-12 -3.04137e-11) (-1.18912e-11 1.13708e-12 -3.04137e-11) (-1.18912e-11 1.13708e-12 -3.04137e-11) (1.29545e-11 1.1873e-11 -9.1948e-11) (1.29545e-11 1.1873e-11 -9.1948e-11) (2.50574e-11 2.47589e-11 -1.46228e-10) (2.50574e-11 2.47589e-11 -1.46228e-10) (3.33103e-12 -1.06111e-11 -2.0662e-10) (3.33103e-12 -1.06111e-11 -2.0662e-10) (1.33022e-11 1.44827e-11 -2.6917e-10) (1.33022e-11 1.44827e-11 -2.6917e-10)
1500          (-1.30567e-11 3.24854e-13 -4.1304e-12) (-1.30567e-11 3.24854e-13 -4.1304e-12) (-1.30567e-11 3.24854e-13 -4.1304e-12) (-1.31534e-11 -1.04776e-11 -1.68491e-11) (-1.31534e-11 -1.04776e-11 -1.68491e-11) (-2.35554e-11 -1.21019e-11 -3.16334e-11) (-2.35554e-11 -1.21019e-11 -3.16334e-11) (1.18289e-11 -3.16183e-13 -6.42313e-11) (1.18289e-11 -3.16183e-13 -6.42313e-11) (-2.15372e-12 1.18316e-12 -1.57448e-10) (-2.15372e-12 1.18316e-12 -1.57448e-10)
1550          (1.30505e-11 1.24755e-12 -4.08788e-11) (1.30505e-11 1.24755e-12 -4.08788e-11) (1.30505e-11 1.24755e-12 -4.08788e-11) (-2.07543e-13 -1.20759e-11 -1.44665e-10) (-2.07543e-13 -1.20759e-11 -1.44665e-10) (1.18975e-11 -1.05978e-11 -2.15451e-10) (1.18975e-11 -1.05978e-11 -2.15451e-10) (-2.19531e-14 1.16496e-11 -2.56014e-10) (-2.19531e-14 1.16496e-11 -2.56014e-10) (1.57267e-13 -1.30934e-11 -2.91494e-10) (1.57267e-13 -1.30934e-11 -2.91494e-10)
1600          (-2.83517e-13 3.63303e-14 -3.28368e-11) (-2.83517e-13 3.63303e-14 -3.28368e-11) (-2.83517e-13 3.63303e-14 -3.28368e-11) (-1.07109e-11 1.07126e-11 -7.93959e-11) (-1.07109e-11 1.07126e-11 -7.93959e-11) (-1.30846e-11 -1.17645e-12 -1.12576e-10) (-1.30846e-11 -1.17645e-12 -1.12576e-10) (1.31224e-11 1.08969e-11 -1.20236e-10) (1.31224e-11 1.08969e-11 -1.20236e-10) (3.22881e-13 -1.30697e-12 -1.38594e-10) (3.22881e-13 -1.30697e-12 -1.38594e-10)
1650          (-2.3858e-12 1.29475e-11 -5.99338e-12) (-2.3858e-12 1.29475e-11 -5.99338e-12) (-2.3858e-12 1.29475e-11 -5.99338e-12) (-1.18196e-11 -1.19914e-11 -6.84405e-11) (-1.18196e-11 -1.19914e-11 -6.84405e-11) (-1.25676e-12 -1.28207e-11 -1.5251e-10) (-1.25676e-12 -1.28207e-11 -1.5251e-10) (1.75747e-12 -1.06007e-11 -1.58703e-10) (1.75747e-12 -1.06007e-11 -1.58703e-10) (-9.76227e-13 4.87752e-14 -1.82141e-10) (-9.76227e-13 4.87752e-14 -1.82141e-10)
1700          (-2.27595e-11 -9.56806e-13 -1.60093e-11) (-2.27595e-11 -9.56806e-13 -1.60093e-11) (-2.27595e-11 -9.56806e-13 -1.60093e-11) (1.42047e-11 1.56628e-12 -1.03222e-10) (1.42047e-11 1.56628e-12 -1.03222e-10) (1.32838e-11 1.20218e-11 -2.22225e-10) (1.32838e-11 1.20218e-11 -2.22225e-10) (1.63073e-13 -2.7109e-12 -2.94676e-10) (1.63073e-13 -2.7109e-12 -2.94676e-10) (2.6207e-11 3.31351e-13 -3.77754e-10) (2.6207e-11 3.31351e-13 -3.77754e-10)
1750          (1.15871e-13 -1.1162e-12 -3.95251e-11) (1.15871e-13 -1.1162e-12 -3.95251e-11) (1.15871e-13 -1.1162e-12 -3.95251e-11) (-1.28063e-11 -1.30982e-11 -1.2779e-10) (-1.28063e-11 -1.30982e-11 -1.2779e-10) (-1.10874e-13 -1.29478e-11 -2.13573e-10) (-1.10874e-13 -1.29478e-11 -2.13573e-10) (-1.09186e-12 -1.30474e-11 -3.11001e-10) (-1.09186e-12 -1.30474e-11 -3.11001e-10) (1.11987e-11 -1.24209e-12 -4.20124e-10) (1.11987e-11 -1.24209e-12 -4.20124e-10)
1800          (-1.22513e-13 -1.41994e-11 2.33057e-12) (-1.22513e-13 -1.41994e-11 2.33057e-12) (-1.22513e-13 -1.41994e-11 2.33057e-12) (-1.05857e-11 -1.1575e-11 1.9449e-11) (-1.05857e-11 -1.1575e-11 1.9449e-11) (-1.08495e-11 -1.57341e-13 1.38719e-11) (-1.08495e-11 -1.57341e-13 1.38719e-11) (-2.61077e-11 -2.31046e-12 -4.22419e-11) (-2.61077e-11 -2.31046e-12 -4.22419e-11) (-1.31222e-11 1.17667e-11 -9.11672e-11) (-1.31222e-11 1.17667e-11 -9.11672e-11)
1850          (-1.30372e-11 -2.25731e-11 -3.82214e-11) (-1.30372e-11 -2.25731e-11 -3.82214e-11) (-1.30372e-11 -2.25731e-11 -3.82214e-11) (-1.34542e-11 2.38752e-11 -8.61342e-11) (-1.34542e-11 2.38752e-11 -8.61342e-11) (6.20326e-13 -1.34938e-11 -1.1538e-10) (6.20326e-13 -1.34938e-11 -1.1538e-10) (1.0958e-11 1.01815e-13 -1.98597e-10) (1.0958e-11 1.01815e-13 -1.98597e-10) (-1.33722e-11 2.51786e-11 -3.58068e-10) (-1.33722e-11 2.51786e-11 -3.58068e-10)
1900          (-2.23812e-11 -1.06415e-11 -6.4345e-12) (-2.23812e-11 -1.06415e-11 -6.4345e-12) (-2.23812e-11 -1.06415e-11 -6.4345e-12) (1.05361e-12 -2.80689e-13 -5.41019e-11) (1.05361e-12 -2.80689e-13 -5.41019e-11) (-1.30844e-11 -9.19523e-12 -1.07078e-10) (-1.30844e-11 -9.19523e-12 -1.07078e-10) (-3.58614e-14 2.51512e-11 -1.33646e-10) (-3.58614e-14 2.51512e-11 -1.33646e-10) (-4.45273e-13 1.17887e-11 -1.78324e-10) (-4.45273e-13 1.17887e-11 -1.78324e-10)
1950          (2.48769e-11 -1.17477e-11 -3.99738e-11) (2.48769e-11 -1.17477e-11 -3.99738e-11) (2.48769e-11 -1.17477e-11 -3.99738e-11) (1.16872e-11 -1.19825e-11 -1.32505e-10) (1.16872e-11 -1.19825e-11 -1.32505e-10) (-1.20423e-11 6.14886e-15 -2.30705e-10) (-1.20423e-11 6.14886e-15 -2.30705e-10) (1.14796e-11 2.65086e-14 -3.16184e-10) (1.14796e-11 2.65086e-14 -3.16184e-10) (-6.37901e-15 -1.19103e-11 -3.86263e-10) (-6.37901e-15 -1.19103e-11 -3.86263e-10)
2000          (-2.37676e-11 -1.30161e-11 -3.34827e-12) (-2.37676e-11 -1.30161e-11 -3.34827e-12) (-2.37676e-11 -1.30161e-11 -3.34827e-12) (1.0841e-11 -1.326e-11 -5.82285e-11) (1.0841e-11 -1.326e-11 -5.82285e-11) (1.3529e-11 1.43618e-11 -1.32774e-10) (1.3529e-11 1.43618e-11 -1.32774e-10) (-1.16818e-11 -1.19876e-11 -1.66496e-10) (-1.16818e-11 -1.19876e-11 -1.66496e-10) (2.24884e-12 1.16801e-11 -2.45726e-10) (2.24884e-12 1.16801e-11 -2.45726e-10)
2050          (-1.42002e-12 2.59592e-11 -1.66935e-11) (-1.42002e-12 2.59592e-11 -1.66935e-11) (-1.42002e-12 2.59592e-11 -1.66935e-11) (-2.24839e-11 1.15857e-11 -3.76516e-11) (-2.24839e-11 1.15857e-11 -3.76516e-11) (2.4933e-11 -1.07663e-13 -3.26626e-11) (2.4933e-11 -1.07663e-13 -3.26626e-11) (-1.28451e-11 -1.08624e-11 -3.32084e-11) (-1.28451e-11 -1.08624e-11 -3.32084e-11) (1.42575e-12 1.31009e-11 -9.37093e-11) (1.42575e-12 1.31009e-11 -9.37093e-11)
2100          (-1.06072e-11 8.21037e-13 -3.80183e-11) (-1.06072e-11 8.21037e-13 -3.80183e-11) (-1.06072e-11 8.21037e-13 -3.80183e-11) (-1.1963e-11 -1.10488e-12 -1.27628e-10) (-1.1963e-11 -1.10488e-12 -1.27628e-10) (1.29489e-11 1.21031e-11 -2.06515e-10) (1.29489e-11 1.21031e-11 -2.06515e-10) (-9.10468e-13 -1.33323e-11 -2.5391e-10) (-9.10468e-13 -1.33323e-11 -2.5391e-10) (2.43645e-12 1.10528e-11 -2.89269e-10) (2.43645e-12 1.10528e-11 -2.89269e-10)
2150          (-1.17478e-11 -1.2998e-11 -1.33664e-11) (-1.17478e-11 -1.2998e-11 -1.33664e-11) (-1.17478e-11 -1.2998e-11 -1.33664e-11) (-1.0723e-11 1.0525e-11 -4.52458e-11) (-1.0723e-11 1.0525e-11 -4.52458e-11) (1.17862e-11 -1.32538e-11 -1.01455e-10) (1.17862e-11 -1.32538e-11 -1.01455e-10) (1.0518e-11 1.20682e-11 -1.77448e-10) (1.0518e-11 1.20682e-11 -1.77448e-10) (-2.47778e-12 -1.35256e-11 -2.42344e-10) (-2.47778e-12 -1.35256e-11 -2.42344e-10)
2200          (1.17528e-11 9.93922e-14 -2.61199e-11) (1.17528e-11 9.93922e-14 -2.61199e-11) (1.17528e-11 9.93922e-14 -2.61199e-11) (1.39786e-11 1.29498e-12 -4.82182e-11) (1.39786e-11 1.29498e-12 -4.82182e-11) (2.05562e-13 1.31396e-11 -9.29573e-11) (2.05562e-13 1.31396e-11 -9.29573e-11) (-9.33526e-15 -1.86749e-12 -1.4807e-10) (-9.33526e-15 -1.86749e-12 -1.4807e-10) (-2.36849e-11 -1.29163e-11 -2.2887e-10) (-2.36849e-11 -1.29163e-11 -2.2887e-10)
2250          (-1.07495e-11 2.29733e-11 -4.08484e-11) (-1.07495e-11 2.29733e-11 -4.08484e-11) (-1.07495e-11 2.29733e-11 -4.08484e-11) (2.12637e-11 -2.36081e-11 -1.30374e-10) (2.12637e-11 -2.36081e-11 -1.30374e-10) (2.5028e-11 1.19725e-12 -2.42414e-10) (2.5028e-11 1.19725e-12 -2.42414e-10) (1.19777e-11 9.57165e-12 -3.25665e-10) (1.19777e-11 9.57165e-12 -3.25665e-10) (-1.15813e-11 -1.06396e-11 -3.586e-10) (-1.15813e-11 -1.06396e-11 -3.586e-10)
2300          (-1.08142e-11 1.12741e-13 -5.96973e-12) (-1.08142e-11 1.12741e-13 -5.96973e-12) (-1.08142e-11 1.12741e-13 -5.96973e-12) (-1.18378e-11 1.19353e-11 -2.12217e-11) (-1.18378e-11 1.19353e-11 -2.12217e-11) (-1.3119e-11 -1.16861e-11 -5.47754e-11) (-1.3119e-11 -1.16861e-11 -5.47754e-11) (-9.59807e-12 1.99279e-12 -9.57177e-11) (-9.59807e-12 1.99279e-12 -9.57177e-11) (2.39867e-11 1.20274e-11 -1.27597e-10) (2.39867e-11 1.20274e-11 -1.27597e-10)
2350          (-2.23797e-11 1.19479e-14 -2.89839e-11) (-2.23797e-11 1.19479e-14 -2.89839e-11) (-2.23797e-11 1.19479e-14 -2.89839e-11) (-1.08524e-11 -2.1775e-12 -5.82036e-11) (-1.08524e-11 -2.1775e-12 -5.82036e-11) (-1.0641e-11 2.50569e-13 -1.01313e-10) (-1.0641e-11 2.50569e-13 -1.01313e-10) (-1.21736e-11 -1.22285e-11 -2.0118e-10) (-1.21736e-11 -1.22285e-11 -2.0118e-10) (2.25143e-12 -1.30779e-11 -2.39956e-10) (2.25143e-12 -1.30779e-11 -2.39956e-10)
2400          (1.10472e-13 -1.22242e-12 -1.45777e-11) (1.10472e-13 -1.22242e-12 -1.45777e-11) (1.10472e-13 -1.22242e-12 -1.45777e-11) (-2.4087e-12 4.81302e-13 -2.72056e-11) (-2.4087e-12 4.81302e-13 -2.72056e-11) (-1.05874e-11 1.37378e-12 -7.37737e-11) (-1.05874e-11 1.37378e-12 -7.37737e-11) (1.07579e-11 1.07616e-11 -1.58039e-10) (1.07579e-11 1.07616e-11 -1.58039e-10) (-1.11749e-11 -2.2429e-11 -2.6184e-10) (-1.11749e-11 -2.2429e-11 -2.6184e-10)
2450          (-1.21265e-11 1.17282e-12 -1.60527e-11) (-1.21265e-11 1.17282e-12 -1.60527e-11) (-1.21265e-11 1.17282e-12 -1.60527e-11) (3.50075e-15 1.38397e-13 -9.31826e-11) (3.50075e-15 1.38397e-13 -9.31826e-11) (1.15268e-11 -1.29938e-12 -1.95458e-10) (1.15268e-11 -1.29938e-12 -1.95458e-10) (1.06151e-11 1.17472e-11 -2.62597e-10) (1.06151e-11 1.17472e-11 -2.62597e-10) (1.11766e-11 1.05612e-11 -3.22707e-10) (1.11766e-11 1.05612e-11 -3.22707e-10)
2500          (-1.29575e-11 1.04948e-12 -1.97228e-11) (-1.29575e-11 1.04948e-12 -1.97228e-11) (-1.29575e-11 1.04948e-12 -1.97228e-11) (-4.66934e-14 2.37172e-11 -9.63304e-11) (-4.66934e-14 2.37172e-11 -9.63304e-11) (-8.33901e-14 -1.0658e-11 -1.79701e-10) (-8.33901e-14 -1.0658e-11 -1.79701e-10) (-1.30332e-11 1.19167e-11 -2.14156e-10) (-1.30332e-11 1.19167e-11 -2.14156e-10) (1.24754e-11 -9.46322e-12 -2.72219e-10) (1.24754e-11 -9.46322e-12 -2.72219e-10)
2550          (1.05315e-11 -2.90456e-13 -1.45782e-11) (1.05315e-11 -2.90456e-13 -1.45782e-11) (1.05315e-11 -2.90456e-13 -1.45782e-11) (-1.04973e-13 1.40786e-12 -4.56521e-11) (-1.04973e-13 1.40786e-12 -4.56521e-11) (-1.011e-12 1.58167e-12 -9.21136e-11) (-1.011e-12 1.58167e-12 -9.21136e-11) (-1.07498e-11 -5.5218e-13 -1.26717e-10) (-1.07498e-11 -5.5218e-13 -1.26717e-10) (1.39593e-11 -6.08179e-14 -1.55725e-10) (1.39593e-11 -6.08179e-14 -1.55725e-10)
2600          (1.32685e-11 2.48591e-11 -4.42831e-11) (1.32685e-11 2.48591e-11 -4.42831e-11) (1.32685e-11 2.48591e-11 -4.42831e-11) (1.23302e-11 -1.14151e-12 -1.47693e-10) (1.23302e-11 -1.14151e-12 -1.47693e-10) (2.38786e-11 -2.30745e-11 -2.57752e-10) (2.38786e-11 -2.30745e-11 -2.57752e-10) (1.20899e-11 -1.08327e-11 -3.07913e-10) (1.20899e-11 -1.08327e-11 -3.07913e-10) (-2.40378e-11 -2.36164e-12 -3.53474e-10) (-2.40378e-11 -2.36164e-12 -3.53474e-10)
2650          (1.19774e-11 -1.05316e-11 -1.68982e-11) (1.19774e-11 -1.05316e-11 -1.68982e-11) (1.19774e-11 -1.05316e-11 -1.68982e-11) (-1.33497e-11 9.3582e-12 -1.03829e-10) (-1.33497e-11 9.3582e-12 -1.03829e-10) (1.28397e-11 1.05355e-12 -1.87235e-10) (1.28397e-11 1.05355e-12 -1.87235e-10) (-9.6123e-14 1.17435e-11 -2.08378e-10) (-9.6123e-14 1.17435e-11 -2.08378e-10) (-1.4116e-11 1.47599e-13 -3.12025e-10) (-1.4116e-11 1.47599e-13 -3.12025e-10)
2700          (1.29384e-11 -4.87822e-13 -1.64344e-11) (1.29384e-11 -4.87822e-13 -1.64344e-11) (1.29384e-11 -4.87822e-13 -1.64344e-11) (-1.0843e-11 1.18208e-11 -4.92623e-11) (-1.0843e-11 1.18208e-11 -4.92623e-11) (-2.43682e-11 -1.75602e-13 -6.37222e-11) (-2.43682e-11 -1.75602e-13 -6.37222e-11) (1.15936e-11 -1.01504e-12 -1.18837e-10) (1.15936e-11 -1.01504e-12 -1.18837e-10) (4.52748e-13 -3.12404e-14 -1.24106e-10) (4.52748e-13 -3.12404e-14 -1.24106e-10)
2750          (2.49142e-13 -2.52559e-11 -3.77984e-11) (2.49142e-13 -2.52559e-11 -3.77984e-11) (2.49142e-13 -2.52559e-11 -3.77984e-11) (-2.39221e-12 -1.30544e-11 -8.71274e-11) (-2.39221e-12 -1.30544e-11 -8.71274e-11) (1.06554e-12 1.58305e-13 -1.22376e-10) (1.06554e-12 1.58305e-13 -1.22376e-10) (7.81133e-14 2.33965e-11 -1.39383e-10) (7.81133e-14 2.33965e-11 -1.39383e-10) (2.33001e-12 -1.283e-11 -1.45195e-10) (2.33001e-12 -1.283e-11 -1.45195e-10)
2800          (2.39116e-11 1.25429e-12 -6.25051e-12) (2.39116e-11 1.25429e-12 -6.25051e-12) (2.39116e-11 1.25429e-12 -6.25051e-12) (1.17007e-11 -1.2856e-11 -2.71123e-11) (1.17007e-11 -1.2856e-11 -2.71123e-11) (2.28567e-11 1.34742e-12 -1.01778e-10) (2.28567e-11 1.34742e-12 -1.01778e-10) (3.03377e-13 -1.20209e-11 -2.08147e-10) (3.03377e-13 -1.20209e-11 -2.08147e-10) (-1.18774e-11 8.28805e-13 -2.91316e-10) (-1.18774e-11 8.28805e-13 -2.91316e-10)
2850          (-9.3524e-13 -1.27512e-11 -5.22264e-12) (-9.3524e-13 -1.27512e-11 -5.22264e-12) (-9.3524e-13 -1.27512e-11 -5.22264e-12) (-1.29355e-11 -1.107e-12 -3.45574e-11) (-1.29355e-11 -1.107e-12 -3.45574e-11) (1.33346e-11 -1.55042e-12 -8.40918e-11) (1.33346e-11 -1.55042e-12 -8.40918e-11) (-1.2331e-11 -2.33753e-13 -1.10568e-10) (-1.2331e-11 -2.33753e-13 -1.10568e-10) (1.28197e-12 -1.02752e-11 -1.07135e-10) (1.28197e-12 -1.02752e-11 -1.07135e-10)
2900          (-1.08902e-11 1.06514e-11 8.02752e-12) (-1.08902e-11 1.06514e-11 8.02752e-12) (-1.08902e-11 1.06514e-11 8.02752e-12) (1.26958e-11 1.28074e-11 -3.32913e-11) (1.26958e-11 1.28074e-11 -3.32913e-11) (-9.86734e-12 1.40512e-11 -1.59598e-10) (-9.86734e-12 1.40512e-11 -1.59598e-10) (1.32762e-11 1.76856e-13 -2.19864e-10) (1.32762e-11 1.76856e-13 -2.19864e-10) (1.30682e-11 1.08795e-11 -2.40975e-10) (1.30682e-11 1.08795e-11 -2.40975e-10)
2950          (-1.29102e-11 1.37083e-12 -1.68489e-11) (-1.29102e-11 1.37083e-12 -1.68489e-11) (-1.29102e-11 1.37083e-12 -1.68489e-11) (2.48643e-11 -1.41967e-13 -9.40607e-11) (2.48643e-11 -1.41967e-13 -9.40607e-11) (2.46152e-11 1.29117e-11 -2.21521e-10) (2.46152e-11 1.29117e-11 -2.21521e-10) (-3.69231e-11 -3.52679e-11 -2.74618e-10) (-3.69231e-11 -3.52679e-11 -2.74618e-10) (2.39759e-11 1.0284e-12 -3.52714e-10) (2.39759e-11 1.0284e-12 -3.52714e-10)
3000          (-1.07191e-12 -1.24266e-12 -1.7337e-11) (-1.07191e-12 -1.24266e-12 -1.7337e-11) (-1.07191e-12 -1.24266e-12 -1.7337e-11) (-1.19243e-11 1.07251e-11 -5.8177e-11) (-1.19243e-11 1.07251e-11 -5.8177e-11) (-2.39181e-11 -3.68613e-11 -1.04378e-10) (-2.39181e-11 -3.68613e-11 -1.04378e-10) (-1.1441e-13 -1.2956e-11 -1.22709e-10) (-1.1441e-13 -1.2956e-11 -1.22709e-10) (2.28198e-13 -1.19003e-11 -1.83748e-10) (2.28198e-13 -1.19003e-11 -1.83748e-10)
3050          (-7.1735e-13 2.26017e-11 -3.10123e-12) (-7.1735e-13 2.26017e-11 -3.10123e-12) (-7.1735e-13 2.26017e-11 -3.10123e-12) (-1.31607e-11 -3.66098e-11 -1.3764e-11) (-1.31607e-11 -3.66098e-11 -1.3764e-11) (1.39937e-11 2.38376e-11 -4.73436e-11) (1.39937e-11 2.38376e-11 -4.73436e-11) (-9.73113e-12 -2.36062e-11 -5.77464e-11) (-9.73113e-12 -2.36062e-11 -5.77464e-11) (-1.033e-12 -1.27641e-11 -5.8435e-11) (-1.033e-12 -1.27641e-11 -5.8435e-11)
3100          (1.18132e-11 -1.95083e-14 -2.60165e-11) (1.18132e-11 -1.95083e-14 -2.60165e-11) (1.18132e-11 -1.95083e-14 -2.60165e-11) (1.06397e-11 1.30403e-11 -1.15873e-10) (1.06397e-11 1.30403e-11 -1.15873e-10) (-1.08068e-11 -2.16574e-11 -2.16178e-10) (-1.08068e-11 -2.16574e-11 -2.16178e-10) (-1.09207e-11 1.21557e-11 -2.31331e-10) (-1.09207e-11 1.21557e-11 -2.31331e-10) (-6.82662e-13 -2.28135e-11 -2.77254e-10) (-6.82662e-13 -2.28135e-11 -2.77254e-10)
3150          (-1.46217e-12 2.39478e-13 -1.56941e-11) (-1.46217e-12 2.39478e-13 -1.56941e-11) (-1.46217e-12 2.39478e-13 -1.56941e-11) (1.19106e-11 1.03232e-11 -7.25828e-11) (1.19106e-11 1.03232e-11 -7.25828e-11) (-2.41906e-13 2.53999e-13 -1.08189e-10) (-2.41906e-13 2.53999e-13 -1.08189e-10) (1.41262e-13 -1.31158e-11 -1.66791e-10) (1.41262e-13 -1.31158e-11 -1.66791e-10) (-3.3387e-13 1.18411e-11 -2.35123e-10) (-3.3387e-13 1.18411e-11 -2.35123e-10)
3200          (1.33027e-11 -1.06735e-11 -4.20931e-11) (1.33027e-11 -1.06735e-11 -4.20931e-11) (1.33027e-11 -1.06735e-11 -4.20931e-11) (1.17964e-11 -1.17572e-11 -1.44993e-10) (1.17964e-11 -1.17572e-11 -1.44993e-10) (-1.42406e-11 -2.49776e-11 -2.45137e-10) (-1.42406e-11 -2.49776e-11 -2.45137e-10) (-1.07444e-11 1.16045e-11 -3.27808e-10) (-1.07444e-11 1.16045e-11 -3.27808e-10) (2.29603e-11 2.47424e-11 -3.783e-10) (2.29603e-11 2.47424e-11 -3.783e-10)
3250          (-1.11491e-11 -1.29192e-12 -5.68053e-11) (-1.11491e-11 -1.29192e-12 -5.68053e-11) (-1.11491e-11 -1.29192e-12 -5.68053e-11) (-1.05336e-11 -1.03584e-12 -1.32065e-10) (-1.05336e-11 -1.03584e-12 -1.32065e-10) (-1.34513e-11 1.20389e-11 -1.8188e-10) (-1.34513e-11 1.20389e-11 -1.8188e-10) (2.27052e-11 1.3018e-11 -2.23177e-10) (2.27052e-11 1.3018e-11 -2.23177e-10) (9.36133e-14 -1.31869e-11 -2.53973e-10) (9.36133e-14 -1.31869e-11 -2.53973e-10)