# Probe 0 (0 0 0)
# Time        0            
1             1000         
2             993.196      
3             987.006      
4             980.98       
5             975.11       
6             969.389      
7             963.812      
8             958.371      
9             953.061      
10            947.878      
11            942.815      
12            937.869      
13            933.035      
14            928.308      
15            923.685      
16            919.162      
17            914.735      
18            910.4        
19            906.156      
20            901.997      
21            897.923      
22            893.929      
23            890.013      
24            886.173      
25            882.406      
26            878.709      
27            875.081      
28            871.52       
29            868.024      
30            864.589      
31            861.216      
32            857.901      
33            854.644      
34            851.442      
35            848.295      
36            845.2        
37            842.156      
38            839.161      
39            836.215      
40            833.317      
41            830.464      
42            827.655      
43            824.89       
44            822.168      
45            819.487      
46            816.846      
47            814.245      
48            811.682      
49            809.156      
50            806.667      
51            804.213      
52            801.795      
53            799.41       
54            797.059      
55            794.74       
56            792.454      
57            790.198      
58            787.972      
59            785.777      
60            783.61       
61            781.472      
62            779.361      
63            777.278      
64            775.222      
65            773.192      
66            771.187      
67            769.208      
68            767.253      
69            765.322      
70            763.415      
71            761.531      
72            759.67       
73            757.831      
74            756.014      
75            754.218      
76            752.443      
77            750.689      
78            748.955      
79            747.241      
80            745.547      
81            743.871      
82            742.215      
83            740.577      
84            738.957      
85            737.355      
86            735.771      
87            734.203      
88            732.653      
89            731.119      
90            729.602      
91            728.1        
92            726.615      
93            725.145      
94            723.69       
95            722.25       
96            720.826      
97            719.415      
98            718.019      
99            716.637      
100           715.269      
101           713.915      
102           712.574      
103           711.246      
104           709.932      
105           708.63       
106           707.341      
107           706.064      
108           704.799      
109           703.547      
110           702.306      
111           701.077      
112           699.86       
113           698.654      
114           697.459      
115           696.276      
116           695.103      
117           693.941      
118           692.789      
119           691.648      
120           690.518      
121           689.397      
122           688.286      
123           687.186      
124           686.095      
125           685.013      
126           683.941      
127           682.879      
128           681.826      
129           680.781      
130           679.746      
131           678.72       
132           677.702      
133           676.693      
134           675.693      
135           674.7        
136           673.717      
137           672.741      
138           671.774      
139           670.814      
140           669.863      
141           668.919      
142           667.983      
143           667.054      
144           666.133      
145           665.219      
146           664.313      
147           663.414      
148           662.522      
149           661.638      
150           660.76       
151           659.889      
152           659.025      
153           658.167      
154           657.317      
155           656.472      
156           655.635      
157           654.804      
158           653.979      
159           653.16       
160           652.348      
161           651.542      
162           650.742      
163           649.948      
164           649.159      
165           648.377      
166           647.601      
167           646.83       
168           646.065      
169           645.305      
170           644.551      
171           643.803      
172           643.06       
173           642.323      
174           641.59       
175           640.863      
176           640.142      
177           639.425      
178           638.714      
179           638.007      
180           637.306      
181           636.609      
182           635.917      
183           635.231      
184           634.549      
185           633.872      
186           633.199      
187           632.531      
188           631.868      
189           631.209      
190           630.555      
191           629.905      
192           629.26       
193           628.619      
194           627.982      
195           627.35       
196           626.722      
197           626.098      
198           625.478      
199           624.863      
200           624.251      
201           623.644      
202           623.04       
203           622.441      
204           621.846      
205           621.254      
206           620.666      
207           620.082      
208           619.502      
209           618.926      
210           618.353      
211           617.784      
212           617.219      
213           616.657      
214           616.099      
215           615.545      
216           614.994      
217           614.446      
218           613.902      
219           613.361      
220           612.824      
221           612.29       
222           611.76       
223           611.232      
224           610.708      
225           610.188      
226           609.67       
227           609.156      
228           608.645      
229           608.137      
230           607.632      
231           607.13       
232           606.631      
233           606.136      
234           605.643      
235           605.153      
236           604.666      
237           604.183      
238           603.702      
239           603.224      
240           602.748      
241           602.276      
242           601.806      
243           601.34       
244           600.876      
245           600.414      
246           599.956      
247           599.5        
248           599.047      
249           598.596      
250           598.148      
251           597.703      
252           597.26       
253           596.82       
254           596.383      
255           595.948      
256           595.515      
257           595.085      
258           594.657      
259           594.232      
260           593.809      
261           593.389      
262           592.971      
263           592.556      
264           592.142      
265           591.732      
266           591.323      
267           590.917      
268           590.513      
269           590.111      
270           589.712      
271           589.314      
272           588.919      
273           588.527      
274           588.136      
275           587.747      
276           587.361      
277           586.977      
278           586.595      
279           586.215      
280           585.837      
281           585.461      
282           585.087      
283           584.716      
284           584.346      
285           583.978      
286           583.612      
287           583.249      
288           582.887      
289           582.527      
290           582.169      
291           581.813      
292           581.459      
293           581.107      
294           580.757      
295           580.408      
296           580.062      
297           579.717      
298           579.374      
299           579.033      
300           578.694      
301           578.356      
302           578.021      
303           577.687      
304           577.354      
305           577.024      
306           576.695      
307           576.368      
308           576.043      
309           575.719      
310           575.397      
311           575.077      
312           574.758      
313           574.441      
314           574.126      
315           573.812      
316           573.5        
317           573.19       
318           572.881      
319           572.574      
320           572.268      
321           571.964      
322           571.661      
323           571.36       
324           571.06       
325           570.762      
326           570.466      
327           570.171      
328           569.877      
329           569.585      
330           569.294      
331           569.005      
332           568.718      
333           568.431      
334           568.146      
335           567.863      
336           567.581      
337           567.3        
338           567.021      
339           566.743      
340           566.467      
341           566.192      
342           565.918      
343           565.646      
344           565.375      
345           565.105      
346           564.837      
347           564.57       
348           564.304      
349           564.039      
350           563.776      
351           563.514      
352           563.254      
353           562.994      
354           562.736      
355           562.48       
356           562.224      
357           561.97       
358           561.717      
359           561.465      
360           561.214      
361           560.964      
362           560.716      
363           560.469      
364           560.223      
365           559.978      
366           559.735      
367           559.493      
368           559.251      
369           559.011      
370           558.772      
371           558.534      
372           558.298      
373           558.062      
374           557.828      
375           557.594      
376           557.362      
377           557.131      
378           556.901      
379           556.672      
380           556.444      
381           556.217      
382           555.991      
383           555.767      
384           555.543      
385           555.32       
386           555.099      
387           554.878      
388           554.659      
389           554.44       
390           554.223      
391           554.006      
392           553.791      
393           553.576      
394           553.363      
395           553.15       
396           552.939      
397           552.728      
398           552.518      
399           552.31       
400           552.102      
401           551.895      
402           551.69       
403           551.485      
404           551.281      
405           551.078      
406           550.876      
407           550.675      
408           550.474      
409           550.275      
410           550.077      
411           549.879      
412           549.682      
413           549.487      
414           549.292      
415           549.098      
416           548.905      
417           548.713      
418           548.521      
419           548.331      
420           548.141      
421           547.952      
422           547.764      
423           547.577      
424           547.391      
425           547.205      
426           547.021      
427           546.837      
428           546.654      
429           546.472      
430           546.29       
431           546.11       
432           545.93       
433           545.751      
434           545.573      
435           545.396      
436           545.219      
437           545.043      
438           544.868      
439           544.694      
440           544.52       
441           544.348      
442           544.176      
443           544.004      
444           543.834      
445           543.664      
446           543.495      
447           543.327      
448           543.159      
449           542.993      
450           542.826      
451           542.661      
452           542.496      
453           542.333      
454           542.169      
455           542.007      
456           541.845      
457           541.684      
458           541.524      
459           541.364      
460           541.205      
461           541.047      
462           540.889      
463           540.732      
464           540.576      
465           540.42       
466           540.265      
467           540.111      
468           539.957      
469           539.804      
470           539.652      
471           539.5        
472           539.349      
473           539.199      
474           539.049      
475           538.9        
476           538.752      
477           538.604      
478           538.456      
479           538.31       
480           538.164      
481           538.019      
482           537.874      
483           537.73       
484           537.586      
485           537.443      
486           537.301      
487           537.159      
488           537.018      
489           536.878      
490           536.738      
491           536.599      
492           536.46       
493           536.322      
494           536.184      
495           536.047      
496           535.911      
497           535.775      
498           535.64       
499           535.505      
500           535.371      
501           535.237      
502           535.104      
503           534.972      
504           534.84       
505           534.708      
506           534.578      
507           534.447      
508           534.318      
509           534.188      
510           534.06       
511           533.932      
512           533.804      
513           533.677      
514           533.55       
515           533.424      
516           533.299      
517           533.174      
518           533.049      
519           532.925      
520           532.802      
521           532.679      
522           532.557      
523           532.435      
524           532.313      
525           532.192      
526           532.072      
527           531.952      
528           531.832      
529           531.713      
530           531.595      
531           531.477      
532           531.359      
533           531.242      
534           531.126      
535           531.01       
536           530.894      
537           530.779      
538           530.664      
539           530.55       
540           530.436      
541           530.323      
542           530.21       
543           530.098      
544           529.986      
545           529.875      
546           529.764      
547           529.653      
548           529.543      
549           529.433      
550           529.324      
551           529.215      
552           529.107      
553           528.999      
554           528.891      
555           528.784      
556           528.678      
557           528.572      
558           528.466      
559           528.361      
560           528.256      
561           528.151      
562           528.047      
563           527.943      
564           527.84       
565           527.737      
566           527.635      
567           527.533      
568           527.431      
569           527.33       
570           527.229      
571           527.129      
572           527.029      
573           526.929      
574           526.83       
575           526.731      
576           526.633      
577           526.535      
578           526.437      
579           526.34       
580           526.243      
581           526.147      
582           526.051      
583           525.955      
584           525.86       
585           525.765      
586           525.67       
587           525.576      
588           525.482      
589           525.389      
590           525.296      
591           525.203      
592           525.111      
593           525.019      
594           524.927      
595           524.836      
596           524.745      
597           524.654      
598           524.564      
599           524.474      
600           524.385      
601           524.296      
602           524.207      
603           524.118      
604           524.03       
605           523.942      
606           523.855      
607           523.768      
608           523.681      
609           523.595      
610           523.509      
611           523.423      
612           523.338      
613           523.253      
614           523.168      
615           523.084      
616           522.999      
617           522.916      
618           522.832      
619           522.749      
620           522.667      
621           522.584      
622           522.502      
623           522.42       
624           522.339      
625           522.258      
626           522.177      
627           522.096      
628           522.016      
629           521.936      
630           521.856      
631           521.777      
632           521.698      
633           521.619      
634           521.541      
635           521.463      
636           521.385      
637           521.308      
638           521.23       
639           521.154      
640           521.077      
641           521.001      
642           520.925      
643           520.849      
644           520.774      
645           520.698      
646           520.624      
647           520.549      
648           520.475      
649           520.401      
650           520.327      
651           520.254      
652           520.181      
653           520.108      
654           520.035      
655           519.963      
656           519.891      
657           519.819      
658           519.748      
659           519.676      
660           519.605      
661           519.535      
662           519.464      
663           519.394      
664           519.324      
665           519.255      
666           519.186      
667           519.116      
668           519.048      
669           518.979      
670           518.911      
671           518.843      
672           518.775      
673           518.708      
674           518.64       
675           518.573      
676           518.507      
677           518.44       
678           518.374      
679           518.308      
680           518.242      
681           518.177      
682           518.112      
683           518.047      
684           517.982      
685           517.917      
686           517.853      
687           517.789      
688           517.725      
689           517.662      
690           517.598      
691           517.535      
692           517.473      
693           517.41       
694           517.348      
695           517.286      
696           517.224      
697           517.162      
698           517.101      
699           517.04       
700           516.979      
701           516.918      
702           516.857      
703           516.797      
704           516.737      
705           516.677      
706           516.618      
707           516.558      
708           516.499      
709           516.44       
710           516.382      
711           516.323      
712           516.265      
713           516.207      
714           516.149      
715           516.091      
716           516.034      
717           515.977      
718           515.92       
719           515.863      
720           515.807      
721           515.75       
722           515.694      
723           515.638      
724           515.583      
725           515.527      
726           515.472      
727           515.417      
728           515.362      
729           515.307      
730           515.253      
731           515.198      
732           515.144      
733           515.091      
734           515.037      
735           514.983      
736           514.93       
737           514.877      
738           514.824      
739           514.772      
740           514.719      
741           514.667      
742           514.615      
743           514.563      
744           514.511      
745           514.46       
746           514.408      
747           514.357      
748           514.306      
749           514.255      
750           514.205      
751           514.155      
752           514.104      
753           514.054      
754           514.005      
755           513.955      
756           513.905      
757           513.856      
758           513.807      
759           513.758      
760           513.709      
761           513.661      
762           513.613      
763           513.564      
764           513.516      
765           513.468      
766           513.421      
767           513.373      
768           513.326      
769           513.279      
770           513.232      
771           513.185      
772           513.139      
773           513.092      
774           513.046      
775           513          
776           512.954      
777           512.908      
778           512.862      
779           512.817      
780           512.772      
781           512.727      
782           512.682      
783           512.637      
784           512.592      
785           512.548      
786           512.504      
787           512.459      
788           512.415      
789           512.372      
790           512.328      
791           512.285      
792           512.241      
793           512.198      
794           512.155      
795           512.112      
796           512.07       
797           512.027      
798           511.985      
799           511.942      
800           511.9        
801           511.858      
802           511.817      
803           511.775      
804           511.734      
805           511.692      
806           511.651      
807           511.61       
808           511.569      
809           511.529      
810           511.488      
811           511.448      
812           511.407      
813           511.367      
814           511.327      
815           511.287      
816           511.248      
817           511.208      
818           511.169      
819           511.13       
820           511.09       
821           511.052      
822           511.013      
823           510.974      
824           510.935      
825           510.897      
826           510.859      
827           510.821      
828           510.783      
829           510.745      
830           510.707      
831           510.67       
832           510.632      
833           510.595      
834           510.558      
835           510.521      
836           510.484      
837           510.447      
838           510.41       
839           510.374      
840           510.337      
841           510.301      
842           510.265      
843           510.229      
844           510.193      
845           510.158      
846           510.122      
847           510.086      
848           510.051      
849           510.016      
850           509.981      
851           509.946      
852           509.911      
853           509.876      
854           509.842      
855           509.807      
856           509.773      
857           509.739      
858           509.705      
859           509.671      
860           509.637      
861           509.603      
862           509.57       
863           509.536      
864           509.503      
865           509.47       
866           509.436      
867           509.403      
868           509.371      
869           509.338      
870           509.305      
871           509.273      
872           509.24       
873           509.208      
874           509.176      
875           509.144      
876           509.112      
877           509.08       
878           509.048      
879           509.017      
880           508.985      
881           508.954      
882           508.923      
883           508.891      
884           508.86       
885           508.829      
886           508.799      
887           508.768      
888           508.737      
889           508.707      
890           508.676      
891           508.646      
892           508.616      
893           508.586      
894           508.556      
895           508.526      
896           508.497      
897           508.467      
898           508.437      
899           508.408      
900           508.379      
901           508.349      
902           508.32       
903           508.291      
904           508.262      
905           508.234      
906           508.205      
907           508.176      
908           508.148      
909           508.12       
910           508.091      
911           508.063      
912           508.035      
913           508.007      
914           507.979      
915           507.951      
916           507.924      
917           507.896      
918           507.869      
919           507.841      
920           507.814      
921           507.787      
922           507.76       
923           507.733      
924           507.706      
925           507.679      
926           507.652      
927           507.626      
928           507.599      
929           507.573      
930           507.546      
931           507.52       
932           507.494      
933           507.468      
934           507.442      
935           507.416      
936           507.39       
937           507.365      
938           507.339      
939           507.314      
940           507.288      
941           507.263      
942           507.238      
943           507.213      
944           507.188      
945           507.163      
946           507.138      
947           507.113      
948           507.088      
949           507.064      
950           507.039      
951           507.015      
952           506.99       
953           506.966      
954           506.942      
955           506.918      
956           506.894      
957           506.87       
958           506.846      
959           506.822      
960           506.799      
961           506.775      
962           506.752      
963           506.728      
964           506.705      
965           506.682      
966           506.658      
967           506.635      
968           506.612      
969           506.589      
970           506.566      
971           506.544      
972           506.521      
973           506.498      
974           506.476      
975           506.453      
976           506.431      
977           506.409      
978           506.387      
979           506.365      
980           506.342      
981           506.32       
982           506.299      
983           506.277      
984           506.255      
985           506.233      
986           506.212      
987           506.19       
988           506.169      
989           506.147      
990           506.126      
991           506.105      
992           506.084      
993           506.063      
994           506.042      
995           506.021      
996           506          
997           505.979      
998           505.959      
999           505.938      
1000          505.917      
1001          505.897      
1002          505.877      
1003          505.856      
1004          505.836      
1005          505.816      
1006          505.796      
1007          505.776      
1008          505.756      
1009          505.736      
1010          505.716      
1011          505.696      
1012          505.676      
1013          505.657      
1014          505.637      
1015          505.618      
1016          505.598      
1017          505.579      
1018          505.56       
1019          505.541      
1020          505.521      
1021          505.502      
1022          505.483      
1023          505.464      
1024          505.446      
1025          505.427      
1026          505.408      
1027          505.389      
1028          505.371      
1029          505.352      
1030          505.334      
1031          505.315      
1032          505.297      
1033          505.279      
1034          505.26       
1035          505.242      
1036          505.224      
1037          505.206      
1038          505.188      
1039          505.17       
1040          505.152      
1041          505.135      
1042          505.117      
1043          505.099      
1044          505.082      
1045          505.064      
1046          505.047      
1047          505.029      
1048          505.012      
1049          504.994      
1050          504.977      
1051          504.96       
1052          504.943      
1053          504.926      
1054          504.909      
1055          504.892      
1056          504.875      
1057          504.858      
1058          504.842      
1059          504.825      
1060          504.808      
1061          504.792      
1062          504.775      
1063          504.759      
1064          504.742      
1065          504.726      
1066          504.71       
1067          504.693      
1068          504.677      
1069          504.661      