# Probe 0 (0.0015 0.0015 0)
# Probe 1 (0.0015 0.0015 0.01)
# Probe 2 (0.0015 0.0015 0.02)
# Probe 3 (0.0015 0.0015 0.03)
# Probe 4 (0.0015 0.0015 0.04)
# Probe 5 (0.0015 0.0015 0.05)
# Probe 6 (0.0015 0.0015 0.06)
# Probe 7 (0.0015 0.0015 0.07)
# Probe 8 (0.0015 0.0015 0.08)
# Probe 9 (0.0015 0.0015 0.09)
# Probe 10 (0.0015 0.0015 0.1)
# Time        0             1             2             3             4             5             6             7             8             9             10           
50            27500.7       48721.4       59509.1       63930.5       65730.9       66744.9       67781         67783.2       67783.3       67983.5       179855       
100           24137.5       42101.4       54134.1       60826.6       64294.1       66111.6       67772.5       67783.2       67784.5       68857.2       193271       
150           22457.6       38184.8       50104.8       57795.6       62416.4       65105.7       67754.1       67783.1       67791.3       70696.5       199369       
200           21417.2       35556.9       47048.8       55141.9       60494.4       63909.2       67721.5       67782.9       67813.4       73470.8       203025       
250           20695.5       33648         44658.6       52875.1       58682.1       62651.2       67669.7       67782.6       67865.4       76946.4       205525       
300           20158.5       32185         42735.1       50939.8       57024.8       61403.6       67594.5       67782.1       67965.2       80836.7       207374       
350           19739.3       31019.6       41148.4       49273.9       55524.5       60203.2       67493.4       67781.7       68130.1       84898.4       208812       
400           19401         30064.9       39814.7       47827.4       54169.3       59063.4       67365.4       67781.6       68375.6       88957.7       209972       
450           19120.8       29265.1       38674.4       46558.3       52941.6       57990.6       67211.1       67782.6       68712.4       92908.1       210933       
500           18884         28582.8       37685.3       45434.3       51825.9       56986         67032         67785.6       69146.6       96691         211747       
550           18680.7       27992.8       36818.3       44431.3       50809.3       56043.5       66830.5       67791.9       69679.7       100278        212447       
600           18503.6       27475.8       36049.5       43528.3       49876.2       55159.9       66609.3       67803         70309.1       103660        213058       
650           18347.7       27018         35362         42710.2       49017.3       54331.2       66371.4       67820.5       71029.1       106842        213597       
700           18209.1       26609.1       34742.4       41964.5       48223.6       53552.8       66119.5       67846.2       71832.1       109830        214077       
750           18085.1       26241.8       34181.5       41282.9       47489.3       52820.3       65856.4       67881.6       72709         112637        214508       
800           17973.1       25908.7       33669.5       40654.8       46805         52130.3       65584.5       67928.5       73650.5       115274        214899       
850           17871.2       25604.8       33199.4       40073.5       46165.7       51478.6       65306.1       67988.3       74647.2       117756        215254       
900           17778         25326.2       32765.7       39533.5       45566.7       50862.1       65023.2       68062.2       75689.7       120093        215580       
950           17692.3       25069.3       32364.1       39030.1       45003.9       50277.7       64737.9       68151.5       76769.3       122297        215879       
1000          17613.2       24831.4       31990.5       38559.1       44473.8       49722.9       64451.7       68256.8       77878.1       124380        216156       
1050          17539.8       24610.3       31641.6       38116.9       43972.7       49193.5       64166.4       68378.8       79008.7       126350        216412       
1100          17471.4       24403.9       31314.7       37700.5       43498.1       48689.8       63883.1       68517.8       80154.6       128216        216651       
1150          17407.5       24210.6       31007.7       37307.4       43048.1       48209.5       63603.2       68674         81310.4       129987        216874       
1200          17347.2       24029.5       30718.6       36935.5       42620.5       47750.5       63327.6       68847.5       82471.1       131670        217084       
1250          17291         23859.2       30445.9       36584.5       42214.6       47312.8       63057.4       69037.7       83631.9       133270        217280       
1300          17237.7       23698.4       30187.6       36250.5       41827.3       46893.1       62793.4       69244.6       84789.7       134795        217465       
1350          17188         23546.2       29943.7       35933.7       41458.4       46492.1       62536.4       69467.3       85940.8       136250        217640       
1400          17140.6       23402.2       29711.8       35631.9       41105.9       46107.3       62287         69705.5       87082.9       137640        217805       
1450          17095.5       23265.5       29491.1       35343.7       40768.3       45736.7       62045.7       69958.4       88213.7       138968        217961       
1500          17052.8       23135.2       29280.5       35068.3       40444.7       45383.1       61813         70225.1       89331.4       140240        218110       
1550          17012.1       23011.7       29080.2       34805.8       40135.7       45041.6       61589.4       70504.9       90434.1       141459        218251       
1600          16973.5       22893.5       28888.4       34554.2       39838.5       44713.5       61375         70796.9       91521         142627        218386       
1650          16936.5       22780.5       28704.8       34312.8       39553         44398         61170.2       71100.3       92590.9       143749        218514       
1700          16901.3       22672.3       28529.1       34081.2       39278.7       44094.5       60975.2       71414.3       93643         144827        218637       
1750          16867.5       22568.8       28360.5       33858.8       39015         43802.3       60790.1       71738.1       94676.8       145864        218754       
1800          16835.1       22469.5       28198.7       33645.1       38761.3       43521         60615         72070.8       95691.7       146861        218866       
1850          16804.1       22374.2       28043.4       33439.8       38517.2       43250.2       60450         72411.5       96687.5       147822        218973       
1900          16775.2       22283         27895.7       33244.7       38284.2       42989.4       60295.2       72759.5       97663.9       148747        219077       
1950          16747         22196.7       27754.8       33058.1       38061.5       42740.5       60150.4       73114         98620.8       149640        219176       
2000          16719.9       22113.6       27619.1       32878         37846.5       42500.9       60015.6       73474.2       99558.4       150501        219271       
2050          16693.9       22033.6       27488.2       32704.2       37639.1       42270         59890.7       73839.5       100477        151332        219362       
2100          16668.8       21956.5       27361.9       32536.7       37439.2       42047.6       59775.7       74209.2       101376        152135        219451       
2150          16644.6       21882.2       27240.2       32375.1       37246.6       41833.5       59670.3       74582.6       102255        152911        219535       
2200          16621.2       21810.5       27122.8       32219.3       37060.9       41627.5       59574.5       74959.1       103117        153662        219617       
2250          16598.7       21741.4       27009.7       32069.1       36882.1       41429.2       59488         75338.2       103959        154388        219696       
2300          16577.1       21675         26901         31924.9       36710.6       41238.4       59410.9       75719.6       104783        155091        219773       
2350          16556.3       21611.2       26796.5       31786.4       36546         41056.3       59342.8       76102.6       105589        155772        219846       
2400          16536.5       21549.4       26695.7       31653.3       36387.6       40881.4       59283.4       76486.6       106378        156431        219917       
2450          16517.3       21491.2       26600.3       31526.7       36237.5       40716.6       59232.2       76871         107149        157070        219986       
2500          16498.5       21433.8       26506.2       31402.2       36090.3       40554.6       59189.6       77255.9       107903        157690        220053       
2550          16480.4       21377.8       26415.1       31281.5       35947.2       40397.6       59155.3       77640.9       108640        158291        220117       
2600          16463.5       21326         26330.3       31169.9       35815.4       40252         59128.4       78025.1       109361        158874        220180       
2650          16446.9       21275.1       26247.4       31060.5       35686.1       40111.6       59109.2       78408.7       110067        159440        220240       
2700          16431.3       21227.4       26169.5       30957.9       35565.2       39978         59097.4       78791.2       110756        159989        220299       
2750          16415.8       21179.8       26092         30855.8       35445         39847.2       59092.7       79172.5       111430        160523        220355       
2800          16400.8       21133.9       26017.1       30757.3       35329.3       39721.4       59095         79552.3       112090        161041        220410       
2850          16387.1       21091.9       25948.8       30667.6       35224.3       39608.3       59103.6       79930.1       112734        161545        220464       
2900          16373.3       21049.5       25879.8       30577.1       35118.7       39494.9       59118.8       80306.4       113366        162035        220516       
2950          16359.9       21008.5       25813.1       30489.9       35017.2       39386.1       59140.3       80680         113982        162511        220566       
3000          16348.1       20972.4       25754.6       30413.6       34928.6       39290.8       59167.5       81051.5       114585        162974        220615       
3050          16335.8       20934.8       25693.7       30334.3       34836.6       39193.1       59200.5       81420.8       115176        163424        220663       
3100          16324.5       20900.2       25637.9       30261.7       34752.8       39104.6       59239.1       81787.1       115753        163863        220709       
3150          16313.6       20866.9       25584         30191.8       34672.4       39019.9       59282.9       82151         116318        164289        220754       
3200          16303         20834.4       25531.7       30124.1       34594.9       38938.5       59331.9       82512.2       116871        164705        220797       
3250          16293         20804         25482.6       30060.8       34522.6       38863.5       59385.7       82870.2       117412        165109        220840       
3300          16283.4       20774.8       25435.7       30000.4       34454.1       38792.9       59444.2       83225.3       117941        165503        220881       
3350          16274.4       20747.4       25391.7       29944.1       34390.4       38727.4       59507.1       83577.3       118459        165887        220921       
3400          16265.9       20721.3       25349.9       29890.7       34330.4       38666.3       59574.4       83926.4       118966        166261        220960       
3450          16257.8       20696.9       25311         29841.2       34275.1       38610.7       59645.8       84272.2       119462        166626        220998       
3500          16250         20673         25272.9       29792.9       34221.5       38557.3       59721.1       84614.7       119948        166982        221036       
3550          16243.1       20652.2       25240         29751.4       34175.6       38512         59800.2       84954         120424        167328        221072       
3600          16236         20630.6       25205.8       29708.5       34128.7       38466.5       59882.9       85290         120890        167666        221107       
3650          16229.7       20611.5       25175.5       29670.6       34087.6       38427.3       59969         85622.7       121347        167996        221141       
3700          16224         20594.1       25148.2       29636.6       34051.1       38392.6       60058.5       85952.1       121794        168318        221175       
3750          16218.1       20576.6       25120.7       29602.7       34015.1       38359.7       60151         86278.1       122231        168632        221207       
3800          16213         20561.1       25096.5       29573         33984         38331.5       60246.5       86600.8       122661        168939        221239       
3850          16207.6       20544.9       25071.4       29542.6       33952.5       38304.7       60344.8       86920.2       123081        169238        221270       
3900          16203.8       20533.4       25053.7       29521.3       33931         38285.7       60445.9       87236.2       123493        169531        221300       
3950          16200.1       20522.6       25037.1       29501.7       33911.3       38269.4       60549.5       87549         123897        169817        221330       
4000          16196.6       20512.1       25021.3       29483         33893         38255.7       60655.5       87858.4       124293        170096        221359       
4050          16193.3       20502.3       25006.3       29465.5       33876.3       38244.4       60763.9       88164.5       124681        170368        221387       
4100          16190.2       20492.9       24992.2       29449.2       33861.4       38235.6       60874.5       88467.2       125062        170635        221415       
4150          16187.2       20484.1       24978.9       29434.2       33848.2       38229.2       60987.2       88766.7       125435        170895        221441       
4200          16184.4       20475.8       24966.5       29420.5       33836.9       38225.2       61101.8       89062.8       125800        171150        221468       
4250          16181.8       20468.1       24955.1       29408.1       33827.4       38223.5       61218.2       89355.7       126159        171399        221493       
4300          16179.4       20460.8       24944.5       29397         33819.7       38224         61336.4       89645.3       126511        171642        221518       
4350          16177.1       20454.1       24934.9       29387.4       33813.9       38226.8       61456.2       89931.8       126857        171880        221543       
4400          16175         20448         24926.2       29379         33809.8       38231.7       61577.5       90215         127195        172113        221567       
4450          16173         20442.3       24918.5       29372.1       33807.4       38238.8       61700.2       90495.2       127528        172341        221590       
4500          16171.2       20437.2       24911.7       29366.4       33806.8       38247.9       61824.1       90772.2       127854        172564        221613       
4550          16169.6       20432.7       24905.8       29362.1       33808         38259         61949.3       91046.1       128175        172782        221635       
4600          16168.2       20428.7       24900.9       29359.2       33810.8       38272.1       62075.6       91317         128489        172996        221657       
4650          16166.9       20425.2       24896.9       29357.5       33815.2       38287.1       62202.9       91584.9       128798        173205        221679       
4700          16165.8       20422.3       24893.8       29357.2       33821.3       38304         62331.1       91849.8       129101        173410        221700       
4750          16164.9       20419.9       24891.7       29358.2       33829         38322.7       62460.2       92111.7       129399        173611        221720       
4800          16164.2       20418         24890.5       29360.4       33838.3       38343.1       62590         92370.8       129692        173808        221740       
4850          16163.6       20416.7       24890.2       29363.8       33849         38365.3       62720.6       92626.9       129979        174001        221760       
4900          16163.2       20416         24890.8       29368.5       33861.3       38389.1       62851.8       92880.3       130262        174190        221779       
4950          16163         20415.7       24892.2       29374.4       33875.1       38414.6       62983.5       93130.8       130539        174375        221798       
5000          16162.9       20416         24894.6       29381.5       33890.2       38441.6       63115.8       93378.6       130812        174557        221817       
5050          16163         20416.8       24897.8       29389.8       33906.8       38470.2       63248.5       93623.7       131081        174735        221835       
5100          16163.3       20418.1       24901.9       29399.2       33924.8       38500.3       63381.7       93866         131344        174909        221852       
5150          16163.7       20419.9       24906.8       29409.7       33944.1       38531.9       63515.1       94105.7       131604        175081        221870       
5200          16164.3       20422.2       24912.5       29421.4       33964.7       38564.8       63648.9       94342.8       131859        175249        221887       
5250          16165         20425         24919.1       29434.1       33986.6       38599.2       63782.9       94577.3       132110        175414        221904       
5300          16165.9       20428.3       24926.4       29447.9       34009.7       38634.8       63917.1       94809.2       132357        175576        221920       
5350          16167         20432.1       24934.5       29462.7       34034.1       38671.8       64051.4       95038.7       132600        175735        221936       
5400          16168.2       20436.3       24943.4       29478.5       34059.6       38710         64185.9       95265.6       132839        175892        221952       
5450          16169.6       20441         24953.1       29495.4       34086.3       38749.4       64320.4       95490.1       133074        176045        221968       
5500          16171.1       20446.1       24963.5       29513.2       34114.1       38790         64455         95712.1       133306        176196        221983       
5550          16172.7       20451.7       24974.6       29531.9       34143         38831.8       64589.5       95931.8       133534        176344        221998       
5600          16174.5       20457.7       24986.4       29551.6       34173         38874.6       64724.1       96149.1       133758        176489        222013       
5650          16176.4       20464.1       24998.9       29572.1       34204         38918.5       64858.5       96364.2       133979        176632        222027       
5700          16178.5       20471         25012.1       29593.6       34236         38963.5       64992.9       96576.9       134197        176773        222041       
5750          16180.7       20478.3       25026         29615.9       34269         39009.4       65127.1       96787.3       134411        176911        222055       
5800          16183.4       20487         25042.5       29642.4       34307.7       39059.7       65261         96995.3       134622        177046        222069       
5850          16185.9       20495.4       25058.4       29667.5       34343.4       39108.3       65394.8       97201.1       134830        177179        222082       
5900          16189         20505.5       25077.2       29696.8       34384.7       39161.2       65528.3       97404.5       135034        177310        222095       
5950          16192.1       20515.8       25096.2       29726.1       34425.5       39214.1       65661.5       97605.7       135235        177439        222108       
6000          16195.4       20526.2       25115.4       29755.4       34465.8       39267.1       65794.5       97804.8       135433        177565        222121       
6050          16199.1       20538.2       25137.2       29788.1       34510.7       39323.5       65927.2       98001.5       135629        177689        222133       
6100          16202.8       20550.4       25159.2       29821.1       34555.5       39380.3       66059.6       98196.1       135821        177812        222146       
6150          16206.7       20562.7       25181.3       29853.9       34600         39437         66191.7       98388.7       136010        177932        222158       
6200          16210.6       20575.1       25203.4       29886.7       34644.1       39493.6       66323.6       98579.3       136197        178050        222170       
6250          16214.9       20589         25228         29922.9       34692.7       39554.2       66454.9       98767.4       136381        178166        222181       
6300          16219.2       20602.9       25252.5       29958.9       34740.8       39614.7       66586.2       98954         136562        178281        222193       
6350          16223.7       20617         25277.5       29995.4       34789.4       39676.2       66717.1       99138.7       136741        178393        222204       
6400          16227.6       20629.3       25299.1       30026.8       34831.3       39730.2       66847.8       99321.5       136918        178504        222215       
6450          16232         20643.5       25324         30063         34879.4       39790.7       66977.9       99502.3       137092        178614        222226       
6500          16237         20659.3       25351.7       30103.2       34932.5       39855.7       67107.7       99681.2       137263        178721        222237       
6550          16241.4       20673.2       25376         30138.4       34979.1       39914.7       67236.9       99858.1       137432        178827        222247       
6600          16246.4       20689         25403.6       30178.2       35031.6       39979.5       67365.7       100033        137599        178931        222258       
6650          16250.9       20703.1       25428.1       30213.6       35078.3       40038.6       67494.4       100207        137763        179034        222268       
6700          16255.9       20719         25455.7       30253.3       35130.5       40103         67622.1       100378        137925        179134        222278       
6750          16261         20735.2       25484         30294         35183.8       40169.4       67749.9       100548        138086        179234        222288       
6800          16265.5       20749.2       25508.3       30328.9       35229.7       40227.2       67877.1       100717        138244        179332        222298       
6850          16270.5       20765.2       25536         30368.6       35281.8       40291.4       68003.6       100883        138400        179429        222308       
6900          16275.7       20781.4       25564.1       30409         35334.6       40356.5       68129.9       101048        138554        179524        222317       
6950          16280.8       20797.6       25592.1       30449         35387         40421.3       68255         101211        138705        179618        222326       
7000          16285.9       20813.6       25619.8       30488.7       35438.8       40485.4       68380         101373        138855        179711        222336       
7050          16291         20829.7       25647.6       30528.5       35490.8       40549.6       68504.5       101533        139003        179802        222345       
7100          16296.1       20845.9       25675.6       30568.4       35542.8       40613.9       68628.4       101691        139150        179892        222354       
7150          16301.3       20862.1       25703.7       30608.5       35595         40678.3       68751.7       101848        139294        179981        222363       
7200          16306.4       20878.4       25731.8       30648.6       35647.3       40742.8       68874.4       102004        139436        180068        222371       
7250          16311.6       20894.8       25760         30688.9       35699.6       40807.3       68996.6       102158        139577        180154        222380       
7300          16316.8       20911.2       25788.4       30729.2       35752         40871.8       69118.2       102310        139716        180239        222388       
7350          16322.1       20927.7       25816.7       30769.6       35804.5       40936.4       69239.1       102461        139853        180323        222397       
7400          16327.3       20944.2       25845.2       30810.1       35857.1       41000.9       69359.5       102611        139989        180406        222405       
7450          16332.6       20960.7       25873.7       30850.6       35909.6       41065.5       69479.2       102759        140123        180488        222413       
7500          16337.9       20977.3       25902.2       30891.1       35962.2       41130         69598.3       102906        140256        180569        222421       
7550          16343.2       20993.9       25930.8       30931.7       36014.8       41194.6       69716.7       103051        140386        180648        222429       
7600          16348.4       21010.6       25959.5       30972.4       36067.4       41259         69834.5       103195        140516        180727        222437       
7650          16353.7       21027.2       25988.1       31013         36120         41323.4       69951.7       103338        140643        180805        222444       
7700          16359.1       21043.9       26016.8       31053.6       36172.5       41387.7       70068.2       103479        140770        180881        222452       
7750          16364.4       21060.6       26045.5       31094.3       36225         41451.9       70184         103619        140895        180957        222459       
7800          16369.7       21077.3       26074.1       31134.9       36277.5       41516         70299.2       103758        141018        181031        222467       
7850          16375         21094         26102.8       31175.5       36329.9       41580         70413.7       103895        141140        181105        222474       
7900          16380.3       21110.7       26131.5       31216         36382.2       41643.9       70527.5       104031        141260        181178        222481       
7950          16385.6       21127.4       26160.1       31256.6       36434.5       41707.6       70640.7       104166        141380        181250        222488       
8000          16391         21144.3       26189.1       31297.6       36487.2       41772         70753.4       104300        141498        181321        222495       
8050          16396.5       21161.5       26218.5       31339         36540.7       41838.2       70865         104432        141614        181391        222502       
8100          16401.2       21176.2       26243.7       31374.7       36586.7       41894.3       70976.4       104564        141730        181460        222509       
8150          16406.6       21193.1       26272.6       31415.5       36639.3       41958         71086.8       104694        141844        181529        222516       
8200          16411.9       21209.8       26301.4       31456.1       36691.4       42021.3       71196.5       104822        141956        181596        222523       
8250          16417.3       21226.8       26330.4       31497         36744.1       42084.9       71305.7       104950        142068        181663        222529       
8300          16422.7       21243.8       26359.5       31538.1       36796.8       42149.1       71413.9       105076        142178        181729        222536       
8350          16428.2       21260.8       26388.7       31579.2       36849.6       42214.1       71521.3       105202        142287        181795        222542       
8400          16432.9       21275.5       26413.8       31614.7       36895.3       42269.5       71628.5       105326        142395        181859        222549       
8450          16438.2       21292.3       26442.5       31655.1       36947.1       42332         71734.7       105449        142502        181923        222555       
8500          16443.6       21309.3       26471.5       31696         36999.6       42395.4       71840         105571        142608        181986        222561       
8550          16449         21326.1       26500.3       31736.5       37051.5       42458.7       71944.9       105692        142712        182048        222567       
8600          16453.7       21340.9       26525.6       31772.1       37097.2       42514.7       72049.3       105812        142816        182110        222573       
8650          16459.1       21357.7       26554.4       31812.6       37149.2       42577         72152.5       105930        142918        182171        222579       
8700          16464.5       21374.6       26583.2       31853.2       37201.1       42639.7       72255.1       106048        143019        182231        222585       
8750          16469.2       21389.6       26608.8       31889.1       37247.2       42696.3       72357.4       106164        143120        182291        222591       