# Probe 0 (0.0015 0.0015 0)
# Probe 1 (0.0015 0.0015 0.01)
# Probe 2 (0.0015 0.0015 0.02)
# Probe 3 (0.0015 0.0015 0.03)
# Probe 4 (0.0015 0.0015 0.04)
# Probe 5 (0.0015 0.0015 0.05)
# Probe 6 (0.0015 0.0015 0.06)
# Probe 7 (0.0015 0.0015 0.07)
# Probe 8 (0.0015 0.0015 0.08)
# Probe 9 (0.0015 0.0015 0.09)
# Probe 10 (0.0015 0.0015 0.1)
# Time        0             1             2             3             4             5             6             7             8             9             10           
50            (-0.0258341 -0.0258341 2.96166e+06) (-0.784247 -0.784247 1.57674e+06) (0.559702 0.559702 679317) (-0.479223 -0.479223 267052) (0.579835 0.579835 122621) (-0.069646 -0.069646 181942) (0.0476571 0.0476571 1661.55) (0.0176333 0.0176333 2.89169) (-0.0352376 -0.0352376 67.7065) (0.81954 0.81954 151143) (-29.7117 -29.7117 4.34692e+07)
100           (1.87729 1.87729 2.2288e+06) (-0.692513 -0.692513 1.53999e+06) (-0.772352 -0.772352 899424) (2.27252 2.27252 475854) (-0.754155 -0.754155 244354) (-3.57378 -3.57378 274218) (0.080522 0.080522 6530.09) (1.82632e-05 1.8277e-05 12.5077) (-0.146104 -0.146104 981.489) (-3.95532 -3.95532 666751) (-1.65899 -1.65899 3.17309e+07)
150           (-4.19961 -4.19961 1.85747e+06) (-2.4019 -2.4019 1.4316e+06) (3.08733 3.08733 963448) (1.99562 1.99562 595125) (-1.58403 -1.58403 348729) (-5.61506 -5.61506 417951) (0.654674 0.654674 15522) (-0.000137917 -0.000137917 61.5521) (-0.0516849 -0.0516849 5296.15) (23.1338 23.1338 1.53685e+06) (-31.4586 -31.4586 2.60973e+07)
200           (4.25098 4.25098 1.62607e+06) (3.47031 3.47031 1.32996e+06) (3.46367 3.46367 971117) (2.68221 2.68221 659209) (1.73365 1.73365 425287) (4.42962 4.42962 554439) (-0.133551 -0.133551 29814.7) (-0.010008 -0.010008 220.959) (-0.711564 -0.711564 17709) (-13.235 -13.235 2.59255e+06) (-47.7355 -47.7355 2.26743e+07)
250           (-3.08462 -3.08462 1.46505e+06) (-1.9171 -1.9171 1.24361e+06) (-2.76873 -2.76873 957644) (-2.46462 -2.46462 692573) (-0.298398 -0.298398 478949) (6.42818 6.42818 667615) (-0.107518 -0.107518 50522.5) (-0.0319854 -0.0319854 628.089) (-1.53687 -1.53687 43949.4) (-11.5367 -11.5367 3.64999e+06) (-59.4618 -59.4618 2.03178e+07)
300           (-0.821052 -0.821052 1.34499e+06) (-1.50393 -1.50393 1.17119e+06) (-2.53763 -2.53763 936376) (-5.5247 -5.5247 708754) (-5.10974 -5.10974 515413) (-17.8546 -17.8546 756786) (0.165543 0.165543 77960) (0.0487446 0.0487446 1520.56) (1.63741 1.63741 89347.3) (14.5854 14.5854 4.58918e+06) (13.2736 13.2736 1.85695e+07)
350           (1.84014 1.84014 1.25117e+06) (3.7158 3.7158 1.10996e+06) (4.10128 4.10128 912667) (2.01383 2.01383 714843) (0.885187 0.885187 540856) (18.7025 18.7025 825378) (-3.13126 -3.13126 111841) (-0.253843 -0.253843 3245.31) (-8.56845 -8.56845 157400) (-78.73 -78.73 5.36192e+06) (81.8396 81.8396 1.72062e+07)
400           (-0.757146 -0.757146 1.17537e+06) (-0.358608 -0.358608 1.0577e+06) (-0.487568 -0.487568 888857) (-0.760817 -0.760817 715038) (-2.53768 -2.53768 556956) (-4.05585 -4.05585 878097) (0.214755 0.214755 150970) (0.00297769 0.00297772 6280.68) (0.361781 0.361781 249443) (12.1801 12.1801 5.96728e+06) (-65.7175 -65.7175 1.61048e+07)
450           (-0.810877 -0.810877 1.11255e+06) (-0.385757 -0.385757 1.01252e+06) (-0.424814 -0.424814 865850) (-0.502756 -0.502756 711559) (-2.28744 -2.28744 567731) (-3.78752 -3.78752 917971) (0.00584698 0.00584699 194178) (-0.0251539 -0.0251539 11184.7) (-0.12235 -0.12235 364565) (7.32411 7.32411 6.42628e+06) (-57.1577 -57.1577 1.51909e+07)
500           (-1.87626 -1.87626 1.05944e+06) (-0.523995 -0.523995 973026) (0.0470208 0.0470208 844008) (0.61828 0.61828 705889) (0.373203 0.373203 574889) (-1.2815 -1.2815 947837) (0.232508 0.232508 240226) (0.103178 0.103178 18564.6) (2.88859 2.88859 500277) (7.27674 7.27674 6.76569e+06) (10.0937 10.0937 1.44165e+07)
550           (1.79449 1.79449 1.01381e+06) (-0.669976 -0.669976 938201) (-0.347127 -0.347127 823536) (-0.337067 -0.337067 698814) (-2.0967 -2.0967 578149) (-12.8763 -12.8763 970922) (6.88003 6.88003 287862) (2.02528 2.02528 29046) (26.507 26.507 652830) (39.9147 39.9147 7.01106e+06) (-36.0642 -36.0642 1.37499e+07)
600           (1.62819 1.62819 974066) (-0.574337 -0.574337 907172) (-0.471794 -0.471794 804334) (-0.525533 -0.525533 690941) (-1.93075 -1.93075 579528) (-17.8105 -17.8105 987787) (8.04693 8.04693 336132) (3.06195 3.06195 43175.9) (32.8949 32.8949 818111) (34.7371 34.7371 7.18364e+06) (-35.6994 -35.6994 1.31679e+07)
650           (1.54878 1.54878 939061) (-0.554063 -0.554063 879315) (-0.467897 -0.467897 786360) (-0.523938 -0.523938 682632) (-1.90192 -1.90192 579373) (-18.6698 -18.6698 999932) (8.34571 8.34571 384268) (4.0758 4.0758 61424.2) (36.0516 36.0516 991891) (26.7339 26.7339 7.30035e+06) (-33.7294 -33.7294 1.2654e+07)
700           (1.42255 1.42255 907929) (-0.529234 -0.529234 854132) (-0.456374 -0.456374 769532) (-0.514505 -0.514505 674124) (-1.85936 -1.85936 578043) (-19.2023 -19.2023 1.00847e+06) (8.45451 8.45451 431726) (5.18877 5.18877 84147.4) (38.222 38.222 1.17027e+06) (19.9066 19.9066 7.37425e+06) (-32.0537 -32.0537 1.21959e+07)
750           (5.39835 5.39835 880064) (0.0371157 0.0371157 831280) (0.0282645 0.0282645 753807) (0.0822522 0.0822522 665584) (1.21813 1.21813 575965) (-6.13193 -6.13193 1.01397e+06) (1.60172 1.60172 478159) (1.05284 1.05284 111556) (6.93142 6.93142 1.34985e+06) (1.88011 1.88011 7.4154e+06) (-18.5105 -18.5105 1.17843e+07)
800           (5.09378 5.09378 854885) (0.0360448 0.0360448 810368) (0.0288441 0.0288441 739037) (0.0781059 0.078106 657088) (1.15078 1.15078 573056) (-5.9563 -5.9563 1.01731e+06) (1.41062 1.41062 523297) (1.12415 1.12415 143776) (6.12576 6.12576 1.52779e+06) (0.883674 0.883674 7.43143e+06) (-17.3056 -17.3056 1.14116e+07)
850           (4.8176 4.8176 831989) (0.0339588 0.0339588 791133) (0.0278227 0.0278227 725139) (0.0735548 0.0735548 648715) (1.0855 1.0855 569693) (-5.8672 -5.8672 1.01887e+06) (1.41254 1.41254 566998) (1.34741 1.34741 180792) (6.21038 6.21038 1.70181e+06) (0.333063 0.333063 7.42817e+06) (-16.3362 -16.3362 1.10722e+07)
900           (4.56041 4.56041 811047) (0.0316829 0.0316829 773360) (0.0264385 0.0264385 712039) (0.069147 0.069147 640513) (1.02539 1.02539 565996) (-5.77697 -5.77697 1.01902e+06) (1.43066 1.43066 609227) (1.59684 1.59684 222483) (6.31538 6.31538 1.87021e+06) (-0.132036 -0.132036 7.41013e+06) (-15.4822 -15.4822 1.07613e+07)
950           (4.31947 4.31947 791791) (0.0294647 0.0294647 756872) (0.0249914 0.0249914 699671) (0.0650632 0.0650632 632510) (0.970119 0.970119 562059) (-5.68295 -5.68295 1.01802e+06) (1.44858 1.44858 650014) (1.85757 1.85757 268636) (6.37729 6.37729 2.03176e+06) (-0.534248 -0.534248 7.38077e+06) (-14.7208 -14.7208 1.04753e+07)
1000          (4.09353 4.09353 774003) (0.0273823 0.0273823 741517) (0.0235863 0.0235863 687972) (0.0613372 0.0613372 624722) (0.919284 0.919284 557956) (-5.58599 -5.58599 1.01611e+06) (1.46544 1.46544 689432) (2.12375 2.12375 318967) (6.39316 6.39316 2.18563e+06) (-0.883687 -0.883687 7.34277e+06) (-14.0335 -14.0335 1.02109e+07)
1050          (7.28122 7.28122 757494) (0.0839087 0.0839087 727162) (0.0630275 0.0630275 676879) (0.0471093 0.0471093 617158) (0.232433 0.232433 553771) (8.64201 8.64201 1.01416e+06) (-2.96434 -2.96434 727579) (-5.26944 -5.26944 373129) (-13.4593 -13.4593 2.33134e+06) (2.13811 2.13811 7.29823e+06) (9.89559 9.89559 9.96562e+06)
1100          (7.72539 7.72539 742116) (0.0316841 0.0316841 713699) (-0.0145511 -0.0145511 666340) (-0.0703901 -0.0703901 609792) (0.150174 0.150174 549473) (9.45697 9.45697 1.01095e+06) (-3.29621 -3.29621 764585) (-6.33323 -6.33323 430743) (-14.5753 -14.5753 2.46867e+06) (2.86851 2.86851 7.24877e+06) (10.449 10.449 9.73718e+06)
1150          (3.99266 3.99266 727740) (-0.011676 -0.011676 701015) (0.258498 0.258498 656335) (0.275173 0.275173 602678) (0.805295 0.805295 545173) (16.0558 16.0558 1.00725e+06) (-3.83986 -3.83986 800579) (-7.87229 -7.87229 491444) (-17.0962 -17.0962 2.59754e+06) (3.20969 3.20969 7.19568e+06) (11.1981 11.1981 9.52379e+06)
1200          (0.209923 0.209923 714200) (-0.72388 -0.72388 688981) (0.904551 0.904551 646930) (0.107098 0.107098 595770) (-1.39472 -1.39472 540547) (7.18792 7.18792 1.00291e+06) (1.45452 1.45452 835694) (3.36718 3.36718 554818) (6.29662 6.29662 2.71813e+06) (-0.721111 -0.721111 7.13997e+06) (9.42679 9.42679 9.32381e+06)
1250          (3.9889 3.9889 701553) (-0.376609 -0.376609 677775) (0.820696 0.820696 637836) (-0.184687 -0.184687 589012) (0.571608 0.571608 536570) (15.6476 15.6476 998779) (-3.42739 -3.42739 870041) (-8.11348 -8.11348 620411) (-14.6685 -14.6685 2.83068e+06) (3.7852 3.7852 7.08244e+06) (6.70752 6.70752 9.13604e+06)
1300          (-0.472027 -0.472027 689564) (-0.581442 -0.581442 667102) (0.958059 0.958059 629240) (-1.02323 -1.02323 582455) (-0.887233 -0.887233 532138) (10.2044 10.2044 993944) (1.53565 1.53565 903744) (3.70715 3.70715 687873) (6.09705 6.09705 2.9355e+06) (-1.06362 -1.06362 7.02372e+06) (8.47591 8.47591 8.95909e+06)
1350          (7.33845 7.33845 678371) (-0.732512 -0.732512 657015) (0.363738 0.363738 620899) (-0.848368 -0.848368 576303) (0.386335 0.386335 528105) (12.2921 12.2921 989432) (-2.4811 -2.4811 936902) (-6.4375 -6.4375 756781) (-9.82616 -9.82616 3.03296e+06) (3.11217 3.11217 6.96433e+06) (-1.89784 -1.89784 8.79218e+06)
1400          (9.12566 9.12566 667710) (-0.927326 -0.927326 647401) (0.390344 0.390344 612999) (-0.948697 -0.948697 570277) (0.14897 0.14897 523949) (11.4839 11.4839 984560) (-2.78657 -2.78657 969619) (-7.62243 -7.62243 826798) (-10.7248 -10.7248 3.12344e+06) (3.95147 3.95147 6.90465e+06) (0.212666 0.212666 8.63424e+06)
1450          (1.70191 1.70191 657587) (-0.934731 -0.934731 638213) (1.26472 1.26472 605466) (-0.364065 -0.364065 564474) (-1.51899 -1.51899 519727) (15.8797 15.8797 979458) (-4.54689 -4.54689 1.00196e+06) (-11.4539 -11.4539 897580) (-15.1388 -15.1388 3.20736e+06) (7.03533 7.03533 6.845e+06) (34.0434 34.0434 8.48451e+06)
1500          (0.474445 0.474445 647977) (-0.786393 -0.786393 629493) (1.44657 1.44657 598166) (-0.0625235 -0.0625235 558801) (-1.24165 -1.24165 515702) (0.227701 0.227701 974385) (-2.41077 -2.41077 1.03402e+06) (-7.3859 -7.3859 968805) (-9.77214 -9.77214 3.28516e+06) (2.90677 2.90677 6.78564e+06) (15.1623 15.1623 8.3424e+06)
1550          (-5.86719 -5.86719 638827) (-1.0176 -1.0176 621156) (1.66299 1.66299 591247) (-0.116063 -0.116063 553337) (0.953744 0.953744 512018) (2.89115 2.89115 969391) (-3.91158 -3.91158 1.06584e+06) (-8.91354 -8.91354 1.04018e+06) (-9.54559 -9.54559 3.35718e+06) (5.93545 5.93545 6.72677e+06) (28.5205 28.5205 8.20721e+06)
1600          (-0.428432 -0.428432 630122) (-0.994038 -0.994038 613238) (1.4218 1.4218 584508) (-0.321316 -0.321316 548020) (0.138777 0.138777 508278) (1.76676 1.76676 964505) (-4.48557 -4.48557 1.09752e+06) (-10.4551 -10.4551 1.11146e+06) (-10.5526 -10.5526 3.42387e+06) (6.68254 6.68254 6.66854e+06) (29.0005 29.0005 8.07844e+06)
1650          (-5.534 -5.534 621817) (-0.846782 -0.846782 605647) (1.44172 1.44172 578042) (-0.254998 -0.254998 542906) (0.222711 0.222711 504580) (5.92122 5.92122 959736) (-4.26462 -4.26462 1.12906e+06) (-9.852 -9.852 1.18242e+06) (-9.27574 -9.27574 3.48556e+06) (6.28988 6.28988 6.61108e+06) (26.9163 26.9163 7.95563e+06)
1700          (-0.2621 -0.2621 613873) (-0.859068 -0.859068 598366) (1.30353 1.30353 571823) (-0.340745 -0.340745 537971) (0.112176 0.112176 500981) (2.01582 2.01582 955075) (-4.50171 -4.50171 1.16052e+06) (-10.4391 -10.4391 1.25284e+06) (-9.2799 -9.2799 3.54258e+06) (6.531 6.531 6.55449e+06) (26.15 26.15 7.83833e+06)
1750          (-5.16017 -5.16017 606271) (-0.777234 -0.777234 591381) (1.32744 1.32744 565839) (-0.234116 -0.234116 533205) (0.191071 0.191071 497487) (6.19623 6.19623 950522) (-4.27274 -4.27274 1.19189e+06) (-9.75279 -9.75279 1.32255e+06) (-8.14427 -8.14427 3.59529e+06) (6.13635 6.13635 6.49883e+06) (24.3593 24.3593 7.72617e+06)
1800          (-0.143796 -0.143796 598984) (-0.799612 -0.799612 584676) (1.21049 1.21049 560079) (-0.296434 -0.296434 528603) (0.0838392 0.0838392 494100) (2.26353 2.26353 946095) (-4.52768 -4.52768 1.22321e+06) (-10.3061 -10.3061 1.39138e+06) (-8.17976 -8.17976 3.644e+06) (6.37116 6.37116 6.44417e+06) (23.8107 23.8107 7.6188e+06)
1850          (-4.84925 -4.84925 591996) (-0.726683 -0.726683 578234) (1.23615 1.23615 554534) (-0.193701 -0.193701 524159) (0.164104 0.164104 490822) (6.28964 6.28964 941795) (-4.30225 -4.30225 1.25449e+06) (-9.59167 -9.59167 1.4592e+06) (-7.18145 -7.18145 3.68899e+06) (5.96823 5.96823 6.39054e+06) (22.2092 22.2092 7.51588e+06)
1900          (-4.32561 -4.32561 585480) (0.0198763 0.0198763 572254) (0.148161 0.148161 549041) (-1.73683 -1.73683 519999) (17.6756 17.6756 487500) (-1.91489 -1.91489 937814) (2.73459 2.73459 1.28572e+06) (7.31958 7.31958 1.52588e+06) (5.67492 5.67492 3.73053e+06) (-3.99324 -3.99324 6.33798e+06) (1.54675 1.54675 7.41717e+06)
1950          (-3.24486 -3.24486 579135) (0.0166848 0.0166848 566408) (2.50832 2.50832 544013) (-1.4905 -1.4905 515894) (-15.0698 -15.0698 484392) (6.63225 6.63225 933513) (0.106526 0.106526 1.3169e+06) (0.697667 0.697667 1.59133e+06) (0.882817 0.882817 3.76887e+06) (0.188275 0.188275 6.2865e+06) (10.8253 10.8253 7.32237e+06)
2000          (-3.1774 -3.1774 573040) (-0.511897 -0.511897 560775) (-4.06645 -4.06645 539140) (3.18834 3.18834 511919) (14.2024 14.2024 481391) (4.28249 4.28249 929470) (0.479436 0.479436 1.34802e+06) (1.48067 1.48067 1.65547e+06) (1.36429 1.36429 3.80427e+06) (-0.253633 -0.253633 6.2361e+06) (9.35429 9.35429 7.23126e+06)
2050          (-3.25583 -3.25583 567173) (1.43829 1.43829 555340) (5.15457 5.15457 534427) (-3.68238 -3.68238 508083) (-13.5351 -13.5351 478528) (5.37114 5.37114 925656) (0.603597 0.603597 1.37907e+06) (1.75211 1.75211 1.71824e+06) (1.49864 1.49864 3.83693e+06) (-0.415921 -0.415921 6.18679e+06) (8.60938 8.60938 7.14361e+06)
2100          (-2.79422 -2.79422 561522) (-2.11288 -2.11288 550100) (-5.22086 -5.22086 529881) (4.1438 4.1438 504380) (12.3414 12.3414 475770) (3.70657 3.70657 922036) (0.671394 0.671394 1.41005e+06) (1.85216 1.85216 1.77958e+06) (1.52678 1.52678 3.86706e+06) (-0.465246 -0.465246 6.13857e+06) (8.10353 8.10353 7.05924e+06)
2150          (-2.74921 -2.74921 556075) (2.91675 2.91675 545043) (5.37716 5.37716 525489) (-4.25279 -4.25279 500818) (-11.8637 -11.8637 473140) (4.67968 4.67968 918618) (0.815357 0.815357 1.44094e+06) (2.14306 2.14306 1.83945e+06) (1.65646 1.65646 3.89484e+06) (-0.639397 -0.639397 6.09143e+06) (7.3866 7.3866 6.97794e+06)
2200          (-2.63532 -2.63532 550824) (-3.44621 -3.44621 540169) (-5.00558 -5.00558 521259) (4.46563 4.46563 497385) (10.8349 10.8349 470610) (3.14878 3.14878 915381) (0.897134 0.897134 1.47173e+06) (2.259 2.259 1.89782e+06) (1.68428 1.68428 3.92043e+06) (-0.699667 -0.699667 6.04536e+06) (6.9093 6.9093 6.89956e+06)
2250          (-2.17977 -2.17977 545759) (4.03854 4.03854 535463) (4.81938 4.81938 517177) (-4.5308 -4.5308 494089) (-10.4412 -10.4412 468203) (4.02603 4.02603 912338) (1.05261 1.05261 1.50241e+06) (2.54686 2.54686 1.95468e+06) (1.79697 1.79697 3.94401e+06) (-0.871634 -0.871634 6.00034e+06) (6.24539 6.24539 6.82395e+06)
2300          (-6.63147 -6.63147 540899) (-6.52456 -6.52456 530951) (-5.0573 -5.0573 513266) (6.5743 6.5743 490932) (11.6507 11.6507 465882) (-18.1642 -18.1642 910150) (21.8352 21.8352 1.53297e+06) (44.2211 44.2211 2.00999e+06) (24.2161 24.2161 3.9657e+06) (-23.7929 -23.7929 5.95637e+06) (-56.3393 -56.3393 6.75102e+06)
2350          (-3.29396 -3.29396 536208) (7.94273 7.94273 526597) (3.00174 3.00174 509537) (-8.02642 -8.02642 487910) (-10.7823 -10.7823 463642) (-19.8633 -19.8633 907450) (24.9183 24.9183 1.56338e+06) (49.5437 49.5437 2.06378e+06) (26.4528 26.4528 3.98564e+06) (-26.651 -26.651 5.91342e+06) (-59.4353 -59.4353 6.68052e+06)
2400          (-3.26156 -3.26156 531751) (-8.64658 -8.64658 522495) (-2.5823 -2.5823 505801) (9.14784 9.14784 484995) (10.1696 10.1696 461630) (-13.2881 -13.2881 904903) (20.7325 20.7325 1.59361e+06) (39.841 39.841 2.11603e+06) (20.2866 20.2866 4.00397e+06) (-21.8856 -21.8856 5.87147e+06) (-52.5182 -52.5182 6.61237e+06)
2450          (4.96113 4.96113 527424) (0.0675153 0.0675153 518458) (0.036148 0.0361481 502456) (0.199005 0.199005 482303) (-0.289194 -0.289194 459623) (-6.9606 -6.9606 901016) (1.51119 1.51119 1.62364e+06) (3.2698 3.2698 2.16679e+06) (1.97579 1.97579 4.02081e+06) (-1.19779 -1.19779 5.83049e+06) (-4.0812 -4.0812 6.54644e+06)
2500          (-4.08142 -4.08142 523203) (0.20755 0.20755 514549) (0.31141 0.31141 499116) (0.162988 0.162988 479557) (0.290589 0.290589 457763) (0.17456 0.17456 898969) (1.38286 1.38286 1.65349e+06) (2.95447 2.95447 2.21603e+06) (1.76702 1.76702 4.03624e+06) (-1.10536 -1.10536 5.79048e+06) (-3.85807 -3.85807 6.4827e+06)
2550          (-5.25461 -5.25461 519117) (-0.0632864 -0.0632864 510746) (0.00162967 0.00162967 495843) (-0.580157 -0.580157 477091) (-2.87355 -2.87355 455711) (-7.84563 -7.84563 898197) (14.7477 14.7477 1.68314e+06) (30.4112 30.4112 2.26378e+06) (19.7304 19.7304 4.05036e+06) (-13.8384 -13.8384 5.75141e+06) (-46.0737 -46.0737 6.42103e+06)
2600          (-3.28762 -3.28762 515311) (0.0652695 0.0652695 507233) (0.129476 0.129476 492828) (0.171703 0.171703 474610) (-0.953944 -0.953944 454251) (-4.40027 -4.40027 895160) (6.58293 6.58293 1.71253e+06) (12.1624 12.1624 2.31007e+06) (5.87427 5.87427 4.06328e+06) (-6.57934 -6.57934 5.71326e+06) (-17.7558 -17.7558 6.36127e+06)
2650          (2.95637 2.95637 511580) (0.030762 0.030762 503794) (-0.0906481 -0.0906481 489873) (-0.862577 -0.862577 472299) (-1.66857 -1.66857 452606) (-12.8928 -12.8928 893219) (6.35508 6.35508 1.74169e+06) (11.1986 11.1986 2.35492e+06) (4.96993 4.96993 4.07508e+06) (-6.36828 -6.36828 5.676e+06) (-14.8597 -14.8597 6.30339e+06)
2700          (4.74655 4.74655 508075) (-1.68027 -1.68027 500560) (-0.976509 -0.976509 487113) (12.3425 12.3425 470110) (18.4935 18.4935 451119) (-8.95396 -8.95396 891279) (3.83413 3.83413 1.77058e+06) (6.67107 6.67107 2.39835e+06) (3.05475 3.05475 4.08582e+06) (-3.35367 -3.35367 5.63962e+06) (-10.3957 -10.3957 6.2473e+06)
2750          (-1.81069 -1.81069 504585) (0.115417 0.115417 497339) (0.136993 0.136993 484365) (0.157734 0.157734 467965) (0.185764 0.185764 449673) (-7.73031 -7.73031 890443) (8.08739 8.08739 1.7992e+06) (13.5521 13.5521 2.4404e+06) (5.63118 5.63118 4.09558e+06) (-7.78235 -7.78235 5.60408e+06) (-17.0614 -17.0614 6.19292e+06)
2800          (-3.93238 -3.93238 501213) (0.141986 0.141986 494228) (0.168786 0.168786 481718) (0.158614 0.158614 465909) (-0.138279 -0.138279 448296) (11.0694 11.0694 890395) (3.58373 3.58373 1.82752e+06) (5.14235 5.14235 2.48108e+06) (1.45838 1.45838 4.10443e+06) (-3.85792 -3.85792 5.56938e+06) (-13.0355 -13.0355 6.14018e+06)
2850          (5.55869 5.55869 498131) (0.0998475 0.0998475 491388) (0.103141 0.103141 479309) (0.0968232 0.0968232 464057) (0.212153 0.212153 447106) (-11.604 -11.604 887835) (5.82619 5.82619 1.85553e+06) (9.55705 9.55705 2.52045e+06) (4.05413 4.05413 4.11243e+06) (-5.06926 -5.06926 5.5355e+06) (-12.7149 -12.7149 6.08901e+06)
2900          (-9.4302 -9.4302 495020) (0.245805 0.245805 488521) (0.337218 0.337218 476884) (0.44247 0.44247 462209) (0.681858 0.681858 445958) (-19.6941 -19.6941 887292) (13.3986 13.3986 1.88324e+06) (21.8338 21.8338 2.55854e+06) (9.56102 9.56102 4.11963e+06) (-10.8792 -10.8792 5.50237e+06) (-16.5993 -16.5993 6.0393e+06)
2950          (-4.7333 -4.7333 492004) (0.198427 0.198427 485750) (0.313491 0.313491 474553) (0.353597 0.353597 460454) (0.00508699 0.005087 444838) (-4.15275 -4.15275 887754) (10.1866 10.1866 1.91059e+06) (15.3099 15.3099 2.59531e+06) (5.60172 5.60172 4.12608e+06) (-9.19383 -9.19383 5.47007e+06) (-21.3746 -21.3746 5.99113e+06)
3000          (-7.82406 -7.82406 489351) (0.549453 0.549453 483322) (0.941227 0.941227 472526) (-2.77861 -2.77861 458936) (8.8219 8.8219 443899) (-5.74634 -5.74634 885339) (8.23208 8.23208 1.93762e+06) (12.2824 12.2824 2.6309e+06) (4.3884 4.3884 4.13185e+06) (-7.24621 -7.24621 5.43848e+06) (-15.7705 -15.7705 5.9443e+06)
3050          (9.89628 9.89628 486578) (-0.89327 -0.89327 480792) (3.17178 3.17178 470419) (-9.95874 -9.95874 457372) (10.063 10.063 442978) (-28.9547 -28.9547 885640) (27.8129 27.8129 1.96432e+06) (39.829 39.829 2.6653e+06) (12.7857 12.7857 4.13697e+06) (-25.5145 -25.5145 5.40761e+06) (-42.4598 -42.4598 5.89877e+06)
3100          (-2.2796 -2.2796 484041) (-0.743297 -0.743297 478473) (0.621946 0.621946 468497) (1.17135 1.17135 455957) (-0.748418 -0.748418 442157) (-6.48672 -6.48672 884998) (8.76011 8.76011 1.99064e+06) (12.6161 12.6161 2.69851e+06) (4.41211 4.41211 4.14147e+06) (-7.32662 -7.32662 5.37747e+06) (-14.8994 -14.8994 5.85457e+06)
3150          (-5.52291 -5.52291 481584) (2.6449 2.6449 476236) (-2.16784 -2.16784 466653) (1.22443 1.22443 454617) (0.340906 0.340906 441409) (-11.4498 -11.4498 884774) (16.7357 16.7357 2.0166e+06) (24.1492 24.1492 2.73061e+06) (8.79101 8.79101 4.14541e+06) (-13.5376 -13.5376 5.348e+06) (-27.7428 -27.7428 5.81157e+06)
3200          (2.61998 2.61998 479194) (12.8456 12.8456 474063) (-13.1023 -13.1023 464871) (6.4683 6.4683 453342) (-0.300944 -0.300944 440724) (-20.9442 -20.9442 885109) (14.5936 14.5936 2.0422e+06) (20.416 20.416 2.76162e+06) (7.08293 7.08293 4.14883e+06) (-11.634 -11.634 5.31919e+06) (-16.353 -16.353 5.76974e+06)
3250          (-1.4844 -1.4844 476949) (14.9617 14.9617 472026) (-14.8775 -14.8775 463211) (7.52364 7.52364 452170) (-0.674833 -0.674833 440124) (-22.0732 -22.0732 885205) (17.8058 17.8058 2.06741e+06) (24.5303 24.5303 2.79155e+06) (8.39948 8.39948 4.15174e+06) (-14.1708 -14.1708 5.29105e+06) (-21.2243 -21.2243 5.72909e+06)
3300          (-2.76868 -2.76868 474797) (15.8305 15.8305 470077) (-15.455 -15.455 461632) (8.04365 8.04365 451074) (-1.13051 -1.13051 439603) (-21.5158 -21.5158 885453) (17.4524 17.4524 2.09224e+06) (23.657 23.657 2.82045e+06) (7.94371 7.94371 4.15419e+06) (-13.7642 -13.7642 5.26354e+06) (-20.6343 -20.6343 5.68954e+06)
3350          (-7.13409 -7.13409 472772) (19.8584 19.8584 468252) (-17.5738 -17.5738 460170) (6.4312 6.4312 450077) (1.42221 1.42221 439134) (-24.7036 -24.7036 885775) (27.1527 27.1527 2.11668e+06) (35.7903 35.7903 2.84835e+06) (11.2761 11.2761 4.15621e+06) (-21.6365 -21.6365 5.23665e+06) (-32.8609 -32.8609 5.65105e+06)
3400          (-4.58424 -4.58424 470840) (-0.0181106 -0.0181106 466520) (-0.0506707 -0.0506707 458788) (-0.0498554 -0.0498554 449154) (0.105755 0.105755 438747) (6.37864 6.37864 886163) (-0.452127 -0.452127 2.14075e+06) (0.0103937 0.0103937 2.8753e+06) (0.990337 0.990337 4.15782e+06) (1.61267 1.61267 5.21034e+06) (1.76228 1.76228 5.61355e+06)
3450          (1.99836 1.99836 469035) (0.148647 0.148647 464907) (0.171816 0.171816 457515) (0.166918 0.166918 448323) (0.162128 0.162128 438394) (-2.71299 -2.71299 886454) (-5.4401 -5.4401 2.16442e+06) (-6.48566 -6.48566 2.90129e+06) (-1.50746 -1.50746 4.15904e+06) (4.40068 4.40068 5.18462e+06) (6.85154 6.85154 5.57708e+06)
3500          (5.74358 5.74358 467265) (0.122416 0.122416 463326) (0.142523 0.142523 456278) (0.131477 0.131477 447530) (0.341614 0.341614 438160) (-12.4345 -12.4345 887376) (-0.474943 -0.474943 2.18769e+06) (-0.0233443 -0.0233442 2.92638e+06) (0.924599 0.9246 4.15992e+06) (1.56283 1.56283 5.15947e+06) (1.56032 1.56032 5.54153e+06)
3550          (3.76021 3.76021 465727) (0.225266 0.225266 461961) (0.253521 0.253521 455223) (0.269958 0.269958 446877) (-0.0936383 -0.0936383 437944) (-9.68594 -9.68594 887228) (-1.87184 -1.87184 2.21057e+06) (-1.81836 -1.81836 2.95059e+06) (0.157594 0.157594 4.16045e+06) (2.09955 2.09955 5.13487e+06) (2.67261 2.67261 5.50692e+06)
3600          (1.7639 1.7639 464124) (0.126356 0.126356 460547) (0.121111 0.121111 454144) (0.0132593 0.0132593 446230) (0.439155 0.439155 437787) (-1.25527 -1.25527 888680) (-5.46826 -5.46826 2.23305e+06) (-6.30977 -6.30977 2.97394e+06) (-1.35232 -1.35232 4.16068e+06) (4.53577 4.53577 5.1108e+06) (6.92015 6.92015 5.47319e+06)
3650          (-5.20717 -5.20717 462703) (0.177964 0.177964 459289) (0.204973 0.204973 453190) (0.223436 0.223436 445674) (0.182803 0.182803 437720) (3.94448 3.94448 889301) (-2.15521 -2.15521 2.25513e+06) (-2.29748 -2.29748 2.99647e+06) (-0.142584 -0.142584 4.1606e+06) (2.29122 2.29122 5.08725e+06) (2.88339 2.88339 5.44031e+06)
3700          (-7.54322 -7.54322 461415) (0.3294 0.3294 458157) (0.343389 0.343389 452345) (0.337421 0.337421 445206) (0.28856 0.28856 437714) (5.17896 5.17896 889793) (-1.92172 -1.92172 2.27683e+06) (-2.03807 -2.03807 3.01821e+06) (-0.228404 -0.228404 4.16026e+06) (1.77507 1.77507 5.06421e+06) (2.3872 2.3872 5.40826e+06)
3750          (-6.86893 -6.86893 460107) (0.303341 0.303341 457017) (0.312012 0.312012 451509) (0.305485 0.305485 444767) (0.239587 0.239587 437745) (4.64772 4.64772 891102) (-1.8039 -1.8039 2.29812e+06) (-1.84461 -1.84461 3.03917e+06) (-0.125448 -0.125448 4.15966e+06) (1.72954 1.72954 5.04166e+06) (2.23298 2.23298 5.37702e+06)
3800          (9.21693 9.21693 458945) (0.238851 0.238851 456015) (0.223404 0.223404 450788) (0.148403 0.148403 444412) (-0.0249155 -0.0249155 437828) (-14.0181 -14.0181 892155) (-1.73982 -1.73982 2.31903e+06) (-1.84336 -1.84336 3.05939e+06) (-0.282301 -0.282301 4.15881e+06) (1.47728 1.47728 5.01958e+06) (2.07418 2.07418 5.34654e+06)
3850          (-4.11218 -4.11218 457735) (0.158433 0.158433 454978) (0.170286 0.170286 450061) (0.170149 0.170149 444086) (0.0625562 0.0625562 437949) (2.96155 2.96155 894121) (-1.92219 -1.92219 2.33954e+06) (-1.85664 -1.85664 3.07888e+06) (0.0365946 0.0365946 4.15774e+06) (2.03895 2.03895 4.99798e+06) (2.47909 2.47909 5.31681e+06)
3900          (9.45281 9.45281 456875) (0.256882 0.256882 454248) (0.220279 0.220279 449560) (0.130792 0.130792 443880) (-0.0669166 -0.0669166 438106) (-13.5075 -13.5075 894711) (-1.58272 -1.58272 2.35967e+06) (-1.66274 -1.66274 3.09769e+06) (-0.290589 -0.290589 4.15646e+06) (1.27144 1.27143 4.97681e+06) (1.84513 1.84513 5.2878e+06)
3950          (8.98278 8.98278 456053) (0.307041 0.307041 453567) (0.242808 0.242808 449114) (0.121763 0.121763 443721) (0.0169192 0.0169192 438259) (-13.4134 -13.4134 895902) (-1.5132 -1.5132 2.37942e+06) (-1.58401 -1.58401 3.11583e+06) (-0.283673 -0.283673 4.15498e+06) (1.21057 1.21057 4.95609e+06) (1.77866 1.77866 5.25948e+06)
4000          (8.29779 8.29779 455267) (0.32302 0.32302 452914) (0.249671 0.249671 448691) (0.111861 0.111861 443587) (0.0192683 0.0192683 438477) (-12.6225 -12.6225 897427) (-1.48428 -1.48428 2.39877e+06) (-1.53518 -1.53518 3.13331e+06) (-0.263269 -0.263269 4.15332e+06) (1.18761 1.18761 4.93579e+06) (1.73811 1.73811 5.23184e+06)
4050          (7.70854 7.70854 454523) (0.328271 0.328271 452296) (0.250384 0.250384 448297) (0.101397 0.101397 443488) (-0.0157095 -0.0157095 438763) (-11.6677 -11.6677 899150) (-1.45996 -1.45996 2.41774e+06) (-1.48921 -1.48921 3.15015e+06) (-0.243511 -0.243511 4.15148e+06) (1.16555 1.16555 4.91591e+06) (1.69888 1.69888 5.20486e+06)
4100          (7.20489 7.20489 453819) (0.326234 0.326234 451712) (0.245543 0.245543 447935) (0.0849639 0.0849639 443431) (-0.0695767 -0.0695767 439114) (-10.6266 -10.6266 901024) (-1.43659 -1.43659 2.43633e+06) (-1.4446 -1.4446 3.16639e+06) (-0.22462 -0.22462 4.14947e+06) (1.14403 1.14403 4.89644e+06) (1.66081 1.66081 5.17852e+06)
4150          (6.77734 6.77734 453154) (0.318946 0.318946 451163) (0.235486 0.235486 447609) (0.0615014 0.0615014 443419) (-0.133898 -0.133898 439524) (-9.53941 -9.53941 903024) (-1.41372 -1.41372 2.45454e+06) (-1.40119 -1.40119 3.18204e+06) (-0.206555 -0.206555 4.14732e+06) (1.12302 1.12302 4.87736e+06) (1.62381 1.62381 5.1528e+06)
4200          (6.41894 6.41894 452527) (0.307704 0.307704 450652) (0.22057 0.22057 447321) (0.0315321 0.0315321 443453) (-0.204493 -0.204493 439989) (-8.43083 -8.43083 905131) (-1.39121 -1.39121 2.4724e+06) (-1.35894 -1.35894 3.19712e+06) (-0.189265 -0.189265 4.14502e+06) (1.10248 1.10248 4.85867e+06) (1.58781 1.58781 5.12768e+06)
4250          (6.12513 6.12513 451938) (0.293368 0.293368 450177) (0.201257 0.201257 447073) (-0.00408308 -0.00408308 443533) (-0.279316 -0.279316 440505) (-7.31716 -7.31716 907333) (-1.36899 -1.36899 2.48989e+06) (-1.31779 -1.31779 3.21164e+06) (-0.172704 -0.172704 4.14258e+06) (1.08239 1.08239 4.84035e+06) (1.55275 1.55275 5.10313e+06)
4300          (5.89358 5.89358 451386) (0.276523 0.276523 449740) (0.178033 0.178033 446866) (-0.0446122 -0.0446121 443659) (-0.357527 -0.357527 441069) (-6.20905 -6.20905 909617) (-1.34696 -1.34696 2.50704e+06) (-1.27769 -1.27769 3.22564e+06) (-0.15683 -0.15683 4.14002e+06) (1.06271 1.06271 4.8224e+06) (1.51856 1.51856 5.07915e+06)
4350          (5.72392 5.72392 450871) (0.257578 0.257578 449342) (0.151317 0.151317 446699) (-0.0896177 -0.0896177 443829) (-0.439049 -0.439049 441677) (-5.11267 -5.11267 911977) (-1.32507 -1.32507 2.52386e+06) (-1.2386 -1.2386 3.23912e+06) (-0.141607 -0.141607 4.13735e+06) (1.04343 1.04343 4.8048e+06) (1.4852 1.4852 5.05571e+06)
4400          (5.61752 5.61752 450395) (0.236797 0.236797 448983) (0.121381 0.121381 446574) (-0.13901 -0.13901 444042) (-0.524328 -0.524328 442326) (-4.02999 -4.02999 914404) (-1.3033 -1.3033 2.54034e+06) (-1.20051 -1.20051 3.2521e+06) (-0.127006 -0.127006 4.13456e+06) (1.02453 1.02453 4.78754e+06) (1.45262 1.45262 5.0328e+06)
4450          (5.57708 5.57708 449957) (0.214311 0.214311 448663) (0.0883017 0.0883017 446491) (-0.193052 -0.193052 444298) (-0.614181 -0.614181 443015) (-2.95885 -2.95885 916891) (-1.2816 -1.2816 2.5565e+06) (-1.16339 -1.16339 3.26461e+06) (-0.113012 -0.113012 4.13168e+06) (1.00598 1.00598 4.77062e+06) (1.4208 1.4208 5.01039e+06)