# Probe 0 (0.0015 0.0015 0)
# Probe 1 (0.0015 0.0015 0.01)
# Probe 2 (0.0015 0.0015 0.02)
# Probe 3 (0.0015 0.0015 0.03)
# Probe 4 (0.0015 0.0015 0.04)
# Probe 5 (0.0015 0.0015 0.05)
# Probe 6 (0.0015 0.0015 0.06)
# Probe 7 (0.0015 0.0015 0.07)
# Probe 8 (0.0015 0.0015 0.08)
# Probe 9 (0.0015 0.0015 0.09)
# Probe 10 (0.0015 0.0015 0.1)
# Time        0             1             2             3             4             5             6             7             8             9             10           
50            (5.40962e-05 5.40962e-05 -6201.67) (0.0016422 0.0016422 -3301.68) (-0.00117201 -0.00117201 -1422.48) (0.00100349 0.00100349 -559.203) (-0.00121417 -0.00121417 -256.767) (0.000145838 0.000145838 -147.493) (-1.88932e-05 -1.88932e-05 -0.658708) (-6.99058e-06 -6.99059e-06 -0.00114639) (1.39697e-05 1.39697e-05 -0.0268417) (-0.000324899 -0.000324899 -59.9194) (0.0117789 0.0117789 -17233)
100           (-0.00393102 -0.00393102 -4667.08) (0.00145011 0.00145011 -3224.73) (0.00161729 0.00161729 -1883.38) (-0.00475863 -0.00475863 -996.433) (0.00157919 0.00157919 -511.674) (0.00748344 0.00748344 -223.666) (-3.19222e-05 -3.19222e-05 -2.5888) (-7.24067e-09 -7.24406e-09 -0.00495855) (5.79216e-05 5.79216e-05 -0.389103) (0.00156805 0.00156805 -264.328) (0.000657692 0.000657692 -12579.4)
150           (0.00879393 0.00879393 -3889.52) (0.00502955 0.00502955 -2997.75) (-0.00646482 -0.00646482 -2017.45) (-0.00417881 -0.00417881 -1246.18) (0.00331695 0.00331695 -730.234) (0.0117579 0.0117579 -340.697) (-0.00025954 -0.00025954 -6.15355) (5.46774e-08 5.46774e-08 -0.0244018) (2.049e-05 2.049e-05 -2.09961) (-0.0091712 -0.0091712 -609.272) (0.0124715 0.0124715 -10346)
200           (-0.00890149 -0.00890149 -3404.97) (-0.00726678 -0.00726678 -2784.91) (-0.00725288 -0.00725288 -2033.51) (-0.00561651 -0.00561651 -1380.37) (-0.00363025 -0.00363025 -890.546) (-0.00927557 -0.00927557 -451.357) (5.29451e-05 5.29451e-05 -11.8198) (3.96759e-06 3.96758e-06 -0.0875973) (0.000282093 0.000282093 -7.02058) (0.0052469 0.0052469 -1027.79) (0.0189243 0.0189243 -8989.03)
250           (0.00645915 0.00645915 -3067.8) (0.00401438 0.00401438 -2604.11) (0.00579769 0.00579769 -2005.29) (0.00516089 0.00516089 -1450.24) (0.000624841 0.000624841 -1002.91) (-0.0134605 -0.0134605 -542.891) (4.26247e-05 4.26247e-05 -20.0292) (1.26803e-05 1.26803e-05 -0.249001) (0.000609278 0.000609278 -17.4234) (0.00457362 0.00457362 -1447.01) (0.0235731 0.0235731 -8054.81)
300           (0.00171927 0.00171927 -2816.4) (0.00314922 0.00314922 -2452.45) (0.00531377 0.00531377 -1960.76) (0.0115687 0.0115687 -1484.12) (0.0106997 0.0106997 -1079.27) (0.0373872 0.0373872 -614.799) (-6.5628e-05 -6.5628e-05 -30.9066) (-1.93244e-05 -1.93244e-05 -0.602811) (-0.000649139 -0.000649139 -35.421) (-0.00578225 -0.00578225 -1819.34) (-0.0052622 -0.0052622 -7361.72)
350           (-0.00385322 -0.00385322 -2619.93) (-0.00778083 -0.00778083 -2324.24) (-0.00858802 -0.00858802 -1911.11) (-0.00421693 -0.00421693 -1496.87) (-0.00185357 -0.00185357 -1132.55) (-0.0391628 -0.0391628 -670.145) (0.00124136 0.00124136 -44.3385) (0.000100634 0.000100634 -1.28658) (0.00339689 0.00339689 -62.3997) (0.0312118 0.0312118 -2125.69) (-0.0324446 -0.0324446 -6821.24)
400           (0.00158545 0.00158545 -2461.2) (0.000750921 0.000750921 -2214.81) (0.00102096 0.00102096 -1861.26) (0.00159314 0.00159314 -1497.28) (0.00531386 0.00531386 -1166.26) (0.00849291 0.00849291 -712.551) (-8.51379e-05 -8.51379e-05 -59.8506) (-1.18049e-06 -1.18049e-06 -2.48992) (-0.000143425 -0.000143425 -98.8894) (-0.00482869 -0.00482869 -2365.68) (0.0260531 0.0260531 -6384.6)
450           (0.00169797 0.00169797 -2329.67) (0.000807769 0.000807769 -2120.21) (0.000889555 0.000889555 -1813.08) (0.00105276 0.00105276 -1489.99) (0.00478986 0.00478986 -1188.82) (0.00793102 0.00793102 -744.557) (-2.31799e-06 -2.31798e-06 -76.98) (9.97204e-06 9.97204e-06 -4.43408) (4.85046e-05 4.85046e-05 -144.529) (-0.00290358 -0.00290358 -2547.64) (0.0226597 0.0226597 -6022.28)
500           (0.00392887 0.00392887 -2218.44) (0.00109724 0.00109724 -2037.5) (-9.8461e-05 -9.8461e-05 -1767.34) (-0.00129467 -0.00129467 -1478.12) (-0.000781482 -0.000781482 -1203.81) (0.00268344 0.00268344 -768.428) (-9.21758e-05 -9.21758e-05 -95.2356) (-4.09039e-05 -4.09039e-05 -7.35976) (-0.00114516 -0.00114516 -198.331) (-0.0028848 -0.0028848 -2682.2) (-0.00400157 -0.00400157 -5715.31)
550           (-0.00375764 -0.00375764 -2122.9) (0.00140292 0.00140292 -1964.58) (0.00072688 0.00072688 -1724.47) (0.000705813 0.000705813 -1463.31) (0.00439047 0.00439047 -1210.64) (0.0269628 0.0269628 -786.87) (-0.00272753 -0.00272753 -114.12) (-0.000802904 -0.000802904 -11.515) (-0.0105085 -0.0105085 -258.809) (-0.0158239 -0.0158239 -2779.47) (0.0142973 0.0142973 -5451.04)
600           (-0.00340941 -0.00340941 -2039.68) (0.00120265 0.00120265 -1899.61) (0.00098793 0.00098793 -1684.27) (0.00110046 0.00110046 -1446.82) (0.00404296 0.00404296 -1213.52) (0.0372949 0.0372949 -800.314) (-0.00319013 -0.00319013 -133.257) (-0.00121388 -0.00121388 -17.1167) (-0.0130409 -0.0130409 -324.333) (-0.0137712 -0.0137712 -2847.89) (0.0141527 0.0141527 -5220.3)
650           (-0.00324313 -0.00324313 -1966.38) (0.0011602 0.0011602 -1841.28) (0.00097977 0.00097977 -1646.63) (0.00109712 0.00109712 -1429.42) (0.0039826 0.0039826 -1213.2) (0.0390943 0.0390943 -809.961) (-0.00330858 -0.00330858 -152.34) (-0.00161582 -0.00161582 -24.3511) (-0.0142923 -0.0142923 -393.226) (-0.0105984 -0.0105984 -2894.16) (0.0133717 0.0133717 -5016.58)
700           (-0.0029788 -0.0029788 -1901.19) (0.00110821 0.00110821 -1788.54) (0.000955642 0.000955642 -1611.39) (0.00107737 0.00107737 -1411.61) (0.00389349 0.00389349 -1210.41) (0.0402094 0.0402094 -816.709) (-0.00335172 -0.00335172 -171.154) (-0.00205704 -0.00205704 -33.3595) (-0.0151528 -0.0151528 -463.945) (-0.0078918 -0.0078918 -2923.46) (0.0127074 0.0127074 -4834.98)
750           (-0.0113041 -0.0113041 -1842.84) (-7.77198e-05 -7.77198e-05 -1740.69) (-5.91855e-05 -5.91855e-05 -1578.46) (-0.000172235 -0.000172235 -1393.72) (-0.00255075 -0.00255075 -1206.06) (0.0128402 0.0128402 -821.085) (-0.000634986 -0.000634986 -189.562) (-0.00041739 -0.00041739 -44.2255) (-0.0027479 -0.0027479 -535.137) (-0.000745352 -0.000745352 -2939.77) (0.00733833 0.00733833 -4671.77)
800           (-0.0106663 -0.0106663 -1790.12) (-7.54773e-05 -7.54773e-05 -1696.9) (-6.03991e-05 -6.03991e-05 -1547.53) (-0.000163553 -0.000163553 -1375.93) (-0.00240973 -0.00240973 -1199.97) (0.0124724 0.0124724 -823.648) (-0.000559227 -0.000559227 -207.457) (-0.000445658 -0.000445658 -56.9988) (-0.0024285 -0.0024285 -605.678) (-0.000350325 -0.000350325 -2946.12) (0.00686066 0.00686066 -4524.03)
850           (-0.010088 -0.010088 -1742.17) (-7.11094e-05 -7.11094e-05 -1656.62) (-5.82603e-05 -5.82603e-05 -1518.43) (-0.000154023 -0.000154023 -1358.4) (-0.00227302 -0.00227302 -1192.93) (0.0122858 0.0122858 -824.796) (-0.000559991 -0.000559991 -224.781) (-0.000534167 -0.000534167 -71.6735) (-0.00246205 -0.00246205 -674.669) (-0.00013204 -0.00013204 -2944.83) (0.00647634 0.00647634 -4389.47)
900           (-0.00954945 -0.00954945 -1698.32) (-6.63436e-05 -6.63435e-05 -1619.41) (-5.53619e-05 -5.53619e-05 -1491) (-0.000144793 -0.000144793 -1341.22) (-0.00214715 -0.00214715 -1185.19) (0.0120969 0.0120969 -824.807) (-0.000567174 -0.000567174 -241.523) (-0.000633053 -0.000633053 -88.2014) (-0.00250368 -0.00250368 -741.43) (5.23445e-05 5.23444e-05 -2937.68) (0.00613778 0.00613778 -4266.24)
950           (-0.00904492 -0.00904492 -1658) (-6.16988e-05 -6.16988e-05 -1584.88) (-5.23316e-05 -5.23316e-05 -1465.1) (-0.000136241 -0.000136241 -1324.47) (-0.00203142 -0.00203142 -1176.94) (0.0119 0.0119 -823.905) (-0.000574276 -0.000574276 -257.692) (-0.000736416 -0.000736416 -106.498) (-0.00252822 -0.00252822 -805.474) (0.000211798 0.000211798 -2926.04) (0.00583593 0.00583593 -4152.84)
1000          (-0.00857179 -0.00857179 -1620.75) (-5.73383e-05 -5.73383e-05 -1552.73) (-4.93894e-05 -4.93894e-05 -1440.6) (-0.000128439 -0.000128439 -1308.16) (-0.00192497 -0.00192497 -1168.35) (0.011697 0.011697 -822.271) (-0.000580961 -0.000580961 -273.319) (-0.000841943 -0.000841943 -126.452) (-0.00253451 -0.00253451 -866.473) (0.00035033 0.00035033 -2910.98) (0.00556347 0.00556347 -4048.03)
1050          (-0.0152468 -0.0152468 -1586.18) (-0.000175704 -0.000175704 -1522.67) (-0.000131979 -0.000131979 -1417.38) (-9.86463e-05 -9.86463e-05 -1292.32) (-0.000486712 -0.000486712 -1159.59) (-0.0180963 -0.0180963 -820.484) (0.00117519 0.00117519 -288.442) (0.00208903 0.00208903 -147.924) (0.0053358 0.0053358 -924.241) (-0.000847636 -0.000847636 -2893.32) (-0.00392302 -0.00392302 -3950.78)
1100          (-0.0161769 -0.0161769 -1553.98) (-6.63461e-05 -6.63461e-05 -1494.48) (3.04698e-05 3.04698e-05 -1395.31) (0.000147396 0.000147396 -1276.9) (-0.000314462 -0.000314462 -1150.59) (-0.0198028 -0.0198028 -817.815) (0.00130675 0.00130675 -303.113) (0.00251075 0.00251075 -170.764) (0.00577824 0.00577824 -978.682) (-0.00113719 -0.00113719 -2873.71) (-0.0041424 -0.0041424 -3860.22)
1150          (-0.00836058 -0.00836058 -1523.88) (2.44493e-05 2.44494e-05 -1467.92) (-0.000541291 -0.000541291 -1374.36) (-0.000576208 -0.000576208 -1262) (-0.00168628 -0.00168628 -1141.59) (-0.0336207 -0.0336207 -814.726) (0.00152228 0.00152228 -317.383) (0.0031209 0.0031209 -194.829) (0.00677762 0.00677762 -1029.77) (-0.00127245 -0.00127245 -2852.67) (-0.00443938 -0.00443938 -3775.62)
1200          (-0.000439577 -0.000439577 -1495.53) (0.00151579 0.00151579 -1442.72) (-0.00189412 -0.00189412 -1354.66) (-0.000224262 -0.000224262 -1247.54) (0.00292053 0.00292053 -1131.9) (-0.0150514 -0.0150514 -811.199) (-0.000576632 -0.000576632 -331.304) (-0.00133489 -0.00133489 -219.953) (-0.00249624 -0.00249624 -1077.58) (0.000285878 0.000285878 -2830.58) (-0.00373717 -0.00373717 -3696.34)
1250          (-0.00835271 -0.00835271 -1469.04) (0.000788614 0.000788614 -1419.25) (-0.00171853 -0.00171853 -1335.62) (0.000386732 0.000386732 -1233.38) (-0.00119694 -0.00119694 -1123.57) (-0.0327659 -0.0327659 -807.761) (0.00135876 0.00135876 -344.92) (0.00321652 0.00321652 -245.957) (0.0058152 0.0058152 -1122.2) (-0.00150061 -0.00150061 -2807.77) (-0.00265914 -0.00265914 -3621.9)
1300          (0.000988418 0.000988418 -1443.94) (0.00121753 0.00121753 -1396.9) (-0.00200616 -0.00200616 -1317.62) (0.00214262 0.00214262 -1219.65) (0.00185786 0.00185786 -1114.29) (-0.0213679 -0.0213679 -803.842) (-0.000608794 -0.000608794 -358.282) (-0.00146967 -0.00146967 -272.701) (-0.00241712 -0.00241712 -1163.75) (0.000421663 0.000421663 -2784.49) (-0.0033602 -0.0033602 -3551.75)
1350          (-0.0153666 -0.0153666 -1420.5) (0.00153387 0.00153387 -1375.78) (-0.000761664 -0.000761664 -1300.16) (0.00177647 0.00177647 -1206.77) (-0.00080898 -0.00080898 -1105.84) (-0.0257395 -0.0257395 -800.116) (0.000983611 0.000983611 -371.427) (0.00255209 0.00255209 -300.019) (0.0038955 0.0038955 -1202.39) (-0.00123379 -0.00123379 -2760.95) (0.000752382 0.000752382 -3485.58)
1400          (-0.019109 -0.019109 -1398.18) (0.00194181 0.00194181 -1355.65) (-0.000817375 -0.000817375 -1283.61) (0.00198656 0.00198656 -1194.15) (-0.000311942 -0.000311942 -1097.14) (-0.024047 -0.024047 -796.137) (0.00110471 0.00110471 -384.397) (0.00302185 0.00302185 -327.777) (0.00425177 0.00425177 -1238.26) (-0.00156653 -0.00156653 -2737.29) (-8.43094e-05 -8.43095e-05 -3422.97)
1450          (-0.00356378 -0.00356378 -1376.98) (0.00195731 0.00195731 -1336.41) (-0.00264831 -0.00264831 -1267.84) (0.000762346 0.000762347 -1182) (0.00318075 0.00318075 -1088.3) (-0.033252 -0.033252 -791.937) (0.00180258 0.00180258 -397.218) (0.00454079 0.00454079 -355.838) (0.00600164 0.00600164 -1271.53) (-0.00278909 -0.00278909 -2713.64) (-0.0134962 -0.0134962 -3363.61)
1500          (-0.000993481 -0.000993481 -1356.85) (0.0016467 0.0016467 -1318.15) (-0.00302911 -0.00302911 -1252.55) (0.000130923 0.000130923 -1170.12) (0.00260001 0.00260001 -1079.87) (-0.000476803 -0.000476803 -787.959) (0.000955729 0.000955729 -409.928) (0.00292808 0.00292808 -384.074) (0.00387408 0.00387408 -1302.37) (-0.00115236 -0.00115236 -2690.11) (-0.00601096 -0.00601096 -3307.27)
1550          (0.0122858 0.0122858 -1337.7) (0.00213083 0.00213083 -1300.69) (-0.00348228 -0.00348228 -1238.06) (0.000243035 0.000243035 -1158.68) (-0.00199713 -0.00199713 -1072.16) (-0.00605403 -0.00605403 -783.785) (0.00155071 0.00155071 -422.545) (0.0035337 0.0035337 -412.369) (0.00378427 0.00378427 -1330.93) (-0.00235306 -0.00235306 -2666.77) (-0.0113067 -0.0113067 -3253.68)
1600          (0.000897132 0.000897132 -1319.47) (0.0020815 0.0020815 -1284.11) (-0.00297722 -0.00297722 -1223.95) (0.000672831 0.000672831 -1147.55) (-0.000290597 -0.000290597 -1064.33) (-0.00369956 -0.00369956 -779.795) (0.00177827 0.00177827 -435.1) (0.00414483 0.00414483 -440.63) (0.00418347 0.00418347 -1357.37) (-0.00264923 -0.00264923 -2643.68) (-0.011497 -0.011497 -3202.63)
1650          (0.0115881 0.0115881 -1302.08) (0.00177315 0.00177315 -1268.22) (-0.00301894 -0.00301894 -1210.41) (0.000533962 0.000533962 -1136.84) (-0.000466354 -0.000466354 -1056.58) (-0.012399 -0.012399 -775.902) (0.00169067 0.00169067 -447.607) (0.00390574 0.00390574 -468.76) (0.00367729 0.00367729 -1381.82) (-0.00249357 -0.00249357 -2620.9) (-0.0106707 -0.0106707 -3153.94)
1700          (0.000548834 0.000548834 -1285.44) (0.00179888 0.00179888 -1252.97) (-0.00272958 -0.00272958 -1197.39) (0.000713515 0.000713515 -1126.5) (-0.000234895 -0.000234895 -1049.05) (-0.00422109 -0.00422109 -772.098) (0.00178467 0.00178467 -460.076) (0.0041385 0.0041385 -496.679) (0.00367893 0.00367893 -1404.43) (-0.00258916 -0.00258916 -2598.47) (-0.010367 -0.010367 -3107.44)
1750          (0.0108053 0.0108053 -1269.52) (0.00162752 0.00162752 -1238.34) (-0.00277964 -0.00277964 -1184.86) (0.000490235 0.000490235 -1116.52) (-0.0004001 -0.0004001 -1041.73) (-0.0129748 -0.0129748 -768.384) (0.00169389 0.00169389 -472.516) (0.00386641 0.00386641 -524.314) (0.00322872 0.00322872 -1425.32) (-0.0024327 -0.0024327 -2576.4) (-0.00965705 -0.00965705 -3062.97)
1800          (0.000301106 0.000301106 -1254.26) (0.00167438 0.00167438 -1224.3) (-0.00253476 -0.00253476 -1172.8) (0.000620728 0.000620728 -1106.89) (-0.000175558 -0.000175558 -1034.64) (-0.0047398 -0.0047398 -764.771) (0.00179496 0.00179496 -484.933) (0.00408577 0.00408577 -551.601) (0.00324279 0.00324279 -1444.63) (-0.00252579 -0.00252579 -2554.73) (-0.00943955 -0.00943955 -3020.41)
1850          (0.0101543 0.0101543 -1239.63) (0.00152166 0.00152166 -1210.81) (-0.00258848 -0.00258848 -1161.19) (0.000405608 0.000405608 -1097.58) (-0.000343631 -0.000343631 -1027.77) (-0.0131704 -0.0131704 -761.263) (0.00170559 0.00170559 -497.33) (0.00380253 0.00380253 -578.487) (0.00284702 0.00284702 -1462.47) (-0.00236605 -0.00236605 -2533.47) (-0.00880466 -0.00880466 -2979.61)
1900          (0.00905776 0.00905776 -1225.99) (-4.16208e-05 -4.16207e-05 -1198.29) (-0.000310247 -0.000310247 -1149.68) (0.0036369 0.0036369 -1088.87) (-0.0370124 -0.0370124 -1020.82) (0.00400975 0.00400975 -757.954) (-0.0010841 -0.0010841 -509.714) (-0.00290178 -0.00290178 -604.922) (-0.00224977 -0.00224977 -1478.93) (0.00158308 0.00158308 -2512.64) (-0.000613195 -0.000613195 -2940.47)
1950          (0.00679469 0.00679469 -1212.7) (-3.49378e-05 -3.49378e-05 -1186.05) (-0.00525239 -0.00525239 -1139.16) (0.00312109 0.00312109 -1080.27) (0.031556 0.031556 -1014.31) (-0.0138878 -0.0138878 -754.446) (-4.22314e-05 -4.22314e-05 -522.074) (-0.000276584 -0.000276584 -630.87) (-0.000349985 -0.000349985 -1494.14) (-7.46402e-05 -7.46402e-05 -2492.23) (-0.0042916 -0.0042916 -2902.89)
2000          (0.00665343 0.00665343 -1199.94) (0.00107191 0.00107191 -1174.25) (0.00851509 0.00851509 -1128.95) (-0.00667634 -0.00667634 -1071.95) (-0.0297397 -0.0297397 -1008.03) (-0.00896749 -0.00896749 -751.149) (-0.000190068 -0.000190068 -534.411) (-0.000586998 -0.000586998 -656.298) (-0.000540863 -0.000540863 -1508.17) (0.000100551 0.000100551 -2472.25) (-0.00370843 -0.00370843 -2866.77)
2050          (0.00681767 0.00681767 -1187.65) (-0.00301176 -0.00301176 -1162.87) (-0.0107936 -0.0107936 -1119.08) (0.00771086 0.00771086 -1063.92) (0.0283422 0.0283422 -1002.03) (-0.0112471 -0.0112471 -748.043) (-0.000239291 -0.000239291 -546.721) (-0.000694609 -0.000694609 -681.181) (-0.000594124 -0.000594124 -1521.12) (0.000164888 0.000164888 -2452.7) (-0.00341311 -0.00341311 -2832.02)
2100          (0.00585106 0.00585106 -1175.82) (0.00442434 0.00442434 -1151.9) (0.0109324 0.0109324 -1109.56) (-0.00867707 -0.00867707 -1056.17) (-0.0258426 -0.0258426 -996.256) (-0.00776152 -0.00776152 -745.09) (-0.000266168 -0.000266168 -559.002) (-0.000734274 -0.000734274 -705.498) (-0.000605279 -0.000605279 -1533.06) (0.000184443 0.000184443 -2433.58) (-0.00321258 -0.00321258 -2798.57)
2150          (0.00575681 0.00575681 -1164.41) (-0.00610764 -0.00610764 -1141.31) (-0.0112597 -0.0112597 -1100.37) (0.00890529 0.00890529 -1048.71) (0.0248425 0.0248425 -990.749) (-0.00979919 -0.00979919 -742.304) (-0.000323241 -0.000323241 -571.248) (-0.000849598 -0.000849598 -729.233) (-0.000656688 -0.000656688 -1544.07) (0.000253483 0.000253483 -2414.89) (-0.00292835 -0.00292835 -2766.34)
2200          (0.00551833 0.00551833 -1153.42) (0.00721631 0.00721631 -1131.11) (0.0104816 0.0104816 -1091.51) (-0.00935097 -0.00935097 -1041.52) (-0.0226882 -0.0226882 -985.452) (-0.0065935 -0.0065935 -739.662) (-0.000355661 -0.000355661 -583.455) (-0.00089556 -0.00089556 -752.374) (-0.000667719 -0.000667719 -1554.22) (0.000277377 0.000277377 -2396.63) (-0.00273913 -0.00273913 -2735.27)
2250          (0.0045644 0.0045644 -1142.81) (-0.00845666 -0.00845666 -1121.25) (-0.0100917 -0.0100917 -1082.96) (0.00948744 0.00948744 -1034.62) (0.0218637 0.0218637 -980.41) (-0.00843045 -0.00843045 -737.179) (-0.000417299 -0.000417299 -595.618) (-0.00100968 -0.00100968 -774.915) (-0.000712392 -0.000712392 -1563.57) (0.000345552 0.000345552 -2378.78) (-0.00247593 -0.00247593 -2705.3)
2300          (0.0138862 0.0138862 -1132.64) (0.0136624 0.0136624 -1111.8) (0.0105899 0.0105899 -1074.77) (-0.0137665 -0.0137665 -1028.01) (-0.0243964 -0.0243964 -975.551) (0.0380357 0.0380357 -735.287) (-0.00865637 -0.00865637 -607.733) (-0.0175311 -0.0175311 -796.843) (-0.00960025 -0.00960025 -1572.17) (0.00943248 0.00943248 -2361.35) (0.0223352 0.0223352 -2676.38)
2350          (0.00689751 0.00689751 -1122.81) (-0.016632 -0.016632 -1102.69) (-0.00628561 -0.00628561 -1066.96) (0.0168072 0.0168072 -1021.68) (0.0225779 0.0225779 -970.861) (0.0415935 0.0415935 -733.095) (-0.00987864 -0.00987864 -619.788) (-0.0196412 -0.0196412 -818.166) (-0.010487 -0.010487 -1580.07) (0.0105655 0.0105655 -2344.32) (0.0235626 0.0235626 -2648.43)
2400          (0.00682967 0.00682967 -1113.48) (0.0181058 0.0181058 -1094.1) (0.0054073 0.0054073 -1059.14) (-0.0191555 -0.0191555 -1015.57) (-0.0212949 -0.0212949 -966.647) (0.0278251 0.0278251 -731.004) (-0.00821922 -0.00821922 -631.773) (-0.0157946 -0.0157946 -838.883) (-0.00804244 -0.00804244 -1587.34) (0.00867635 0.00867635 -2327.69) (0.0208204 0.0208204 -2621.42)
2450          (-0.0103885 -0.0103885 -1104.42) (-0.000141376 -0.000141376 -1085.64) (-7.56935e-05 -7.56935e-05 -1052.14) (-0.000416713 -0.000416713 -1009.94) (0.000605567 0.000605567 -962.444) (0.0145754 0.0145754 -727.978) (-0.000599097 -0.000599097 -643.68) (-0.00129628 -0.00129628 -859.006) (-0.000783286 -0.000783286 -1594.01) (0.000474855 0.000474855 -2311.45) (0.00161796 0.00161796 -2595.28)
2500          (0.00854643 0.00854643 -1095.58) (-0.000434608 -0.000434608 -1077.46) (-0.000652089 -0.000652089 -1045.14) (-0.000341294 -0.000341294 -1004.19) (-0.00060849 -0.00060849 -958.55) (-0.000365526 -0.000365526 -726.293) (-0.000548224 -0.000548224 -655.513) (-0.00117127 -0.00117127 -878.527) (-0.000700519 -0.000700519 -1600.13) (0.000438209 0.000438209 -2295.58) (0.0015295 0.0015295 -2570.01)
2550          (0.0110031 0.0110031 -1087.02) (0.000132521 0.000132521 -1069.5) (-3.41251e-06 -3.41251e-06 -1038.29) (0.00121484 0.00121484 -999.023) (0.00601717 0.00601717 -954.253) (0.0164287 0.0164287 -725.564) (-0.00584662 -0.00584662 -667.266) (-0.0120563 -0.0120563 -897.455) (-0.00782193 -0.00782193 -1605.73) (0.00548611 0.00548611 -2280.09) (0.0182655 0.0182655 -2545.56)
2600          (0.00688424 0.00688424 -1079.05) (-0.000136673 -0.000136673 -1062.14) (-0.000271122 -0.000271122 -1031.98) (-0.000359544 -0.000359544 -993.828) (0.00199755 0.00199755 -951.196) (0.00921411 0.00921411 -723.151) (-0.00260975 -0.00260975 -678.919) (-0.0048217 -0.0048217 -915.807) (-0.0023288 -0.0023288 -1610.85) (0.00260832 0.00260832 -2264.97) (0.00703913 0.00703913 -2521.87)
2650          (-0.0061906 -0.0061906 -1071.24) (-6.44153e-05 -6.44153e-05 -1054.94) (0.000189816 0.000189816 -1025.79) (0.00180623 0.00180623 -988.987) (0.00349397 0.00349397 -947.75) (0.0269973 0.0269973 -721.595) (-0.00251942 -0.00251942 -690.478) (-0.00443957 -0.00443957 -933.587) (-0.00197029 -0.00197029 -1615.53) (0.00252465 0.00252465 -2250.2) (0.00589101 0.00589101 -2498.92)
2700          (-0.00993922 -0.00993922 -1063.9) (0.00351846 0.00351846 -1048.17) (0.0020448 0.0020448 -1020.01) (-0.025845 -0.025845 -984.405) (-0.0387252 -0.0387252 -944.637) (0.0187495 0.0187495 -719.996) (-0.00152001 -0.00152001 -701.931) (-0.00264469 -0.00264469 -950.804) (-0.00121103 -0.00121103 -1619.79) (0.00132953 0.00132953 -2235.78) (0.0041213 0.0041213 -2476.69)
2750          (0.00379156 0.00379156 -1056.59) (-0.000241681 -0.000241681 -1041.42) (-0.000286861 -0.000286861 -1014.25) (-0.000330293 -0.000330293 -979.912) (-0.000388987 -0.000388987 -941.61) (0.0161872 0.0161872 -719.278) (-0.00320617 -0.00320617 -713.276) (-0.00537261 -0.00537261 -967.475) (-0.00223243 -0.00223243 -1623.66) (0.00308525 0.00308525 -2221.69) (0.00676386 0.00676386 -2455.13)
2800          (0.00823436 0.00823436 -1049.53) (-0.000297317 -0.000297317 -1034.91) (-0.000353436 -0.000353436 -1008.71) (-0.000332136 -0.000332136 -975.607) (0.000289553 0.000289553 -938.726) (-0.0231792 -0.0231792 -719.092) (-0.00142074 -0.00142074 -724.504) (-0.00203864 -0.00203864 -983.603) (-0.000578164 -0.000578164 -1627.17) (0.00152944 0.00152944 -2207.93) (0.00516779 0.00516779 -2434.22)
2850          (-0.0116398 -0.0116398 -1043.08) (-0.000209079 -0.000209079 -1028.96) (-0.000215977 -0.000215977 -1003.67) (-0.000202746 -0.000202746 -971.73) (-0.000444245 -0.000444245 -936.233) (0.0242987 0.0242987 -717.143) (-0.00230974 -0.00230974 -735.608) (-0.00378881 -0.00378881 -999.209) (-0.00160722 -0.00160722 -1630.34) (0.00200967 0.00200967 -2194.5) (0.0050407 0.0050407 -2413.93)
2900          (0.0197467 0.0197467 -1036.57) (-0.000514711 -0.000514711 -1022.96) (-0.000706131 -0.000706131 -998.59) (-0.000926527 -0.000926527 -967.859) (-0.0014278 -0.0014278 -933.83) (0.0412392 0.0412392 -716.687) (-0.00531177 -0.00531177 -746.595) (-0.0086558 -0.0086558 -1014.31) (-0.00379038 -0.00379038 -1633.19) (0.00431298 0.00431298 -2181.37) (0.00658065 0.00658065 -2394.23)
2950          (0.00991146 0.00991146 -1030.25) (-0.000415503 -0.000415503 -1017.15) (-0.000656446 -0.000656446 -993.708) (-0.000740428 -0.000740428 -964.185) (-1.06521e-05 -1.06521e-05 -931.485) (0.0086958 0.0086958 -716.901) (-0.00403837 -0.00403837 -757.437) (-0.00606947 -0.00606947 -1028.89) (-0.00222075 -0.00222075 -1635.75) (0.00364481 0.00364481 -2168.56) (0.00847376 0.00847376 -2375.13)
3000          (0.0163835 0.0163835 -1024.69) (-0.00115055 -0.00115055 -1012.07) (-0.00197092 -0.00197092 -989.464) (0.00581837 0.00581837 -961.006) (-0.0184729 -0.0184729 -929.519) (0.0120328 0.0120328 -715.063) (-0.00326354 -0.00326354 -768.153) (-0.00486925 -0.00486925 -1043) (-0.00173974 -0.00173974 -1638.03) (0.0028727 0.0028727 -2156.04) (0.00625206 0.00625206 -2356.56)
3050          (-0.0207227 -0.0207227 -1018.89) (0.00187049 0.00187049 -1006.77) (-0.00664167 -0.00664167 -985.052) (0.0208535 0.0208535 -957.732) (-0.0210717 -0.0210717 -927.59) (0.0606308 0.0606308 -715.262) (-0.0110262 -0.0110262 -778.738) (-0.0157898 -0.0157898 -1056.64) (-0.00506879 -0.00506879 -1640.06) (0.010115 0.010115 -2143.8) (0.0168328 0.0168328 -2338.51)
3100          (0.00477345 0.00477345 -1013.58) (0.00155645 0.00155645 -1001.92) (-0.00130235 -0.00130235 -981.027) (-0.00245279 -0.00245279 -954.767) (0.00156718 0.00156718 -925.871) (0.0135831 0.0135831 -714.743) (-0.00347287 -0.00347287 -789.171) (-0.00500153 -0.00500153 -1069.8) (-0.00174914 -0.00174914 -1641.85) (0.00290457 0.00290457 -2131.85) (0.00590672 0.00590672 -2320.99)
3150          (0.0115649 0.0115649 -1008.43) (-0.00553838 -0.00553838 -997.231) (0.00453943 0.00453943 -977.164) (-0.00256395 -0.00256395 -951.962) (-0.000713853 -0.000713853 -924.305) (0.0239757 0.0239757 -714.532) (-0.00663471 -0.00663471 -799.463) (-0.00957375 -0.00957375 -1082.53) (-0.00348512 -0.00348512 -1643.41) (0.00536686 0.00536686 -2120.17) (0.0109984 0.0109984 -2303.95)
3200          (-0.0054862 -0.0054862 -1003.43) (-0.0268986 -0.0268986 -992.682) (0.027436 0.027436 -973.434) (-0.0135445 -0.0135445 -949.292) (0.000630174 0.000630174 -922.87) (0.0438568 0.0438568 -714.78) (-0.0057855 -0.0057855 -809.614) (-0.00809375 -0.00809375 -1094.82) (-0.00280797 -0.00280797 -1644.77) (0.00461221 0.00461221 -2108.75) (0.006483 0.006483 -2287.36)
3250          (0.00310832 0.00310832 -998.725) (-0.0313297 -0.0313297 -988.416) (0.0311534 0.0311534 -969.958) (-0.0157544 -0.0157544 -946.838) (0.00141309 0.00141309 -921.613) (0.0462211 0.0462211 -714.835) (-0.00705894 -0.00705894 -819.608) (-0.00972483 -0.00972483 -1106.69) (-0.0033299 -0.0033299 -1645.92) (0.00561791 0.00561791 -2097.59) (0.0084142 0.0084142 -2271.25)
3300          (0.00579758 0.00579758 -994.219) (-0.0331489 -0.0331489 -984.335) (0.0323626 0.0323626 -966.652) (-0.0168433 -0.0168433 -944.544) (0.00236726 0.00236726 -920.523) (0.0450537 0.0450537 -715.016) (-0.00691884 -0.00691884 -829.451) (-0.00937861 -0.00937861 -1118.14) (-0.00314922 -0.00314922 -1646.89) (0.00545668 0.00545668 -2086.68) (0.0081803 0.0081803 -2255.57)
3350          (0.0149387 0.0149387 -989.979) (-0.0415833 -0.0415833 -980.514) (0.0367992 0.0367992 -963.59) (-0.0134669 -0.0134669 -942.456) (-0.00297809 -0.00297809 -919.541) (0.051729 0.051729 -715.252) (-0.0107644 -0.0107644 -839.141) (-0.0141888 -0.0141888 -1129.21) (-0.0044703 -0.0044703 -1647.69) (0.00857758 0.00857758 -2076.02) (0.0130274 0.0130274 -2240.31)
3400          (0.00959935 0.00959935 -985.933) (3.79235e-05 3.79235e-05 -976.888) (0.000106104 0.000106104 -960.696) (0.000104397 0.000104397 -940.523) (-0.00022145 -0.00022145 -918.73) (-0.0133568 -0.0133568 -715.541) (0.000179242 0.000179242 -848.682) (-4.12049e-06 -4.12051e-06 -1139.89) (-0.00039261 -0.00039261 -1648.33) (-0.00063933 -0.00063933 -2065.59) (-0.00069864 -0.00069864 -2225.44)
3450          (-0.00418454 -0.00418454 -982.154) (-0.000311265 -0.000311265 -973.509) (-0.000359781 -0.000359781 -958.031) (-0.000349524 -0.000349524 -938.782) (-0.000339494 -0.000339494 -917.991) (0.00568097 0.00568097 -715.796) (0.00215668 0.00215668 -858.065) (0.00257118 0.00257118 -1150.19) (0.000597619 0.000597619 -1648.82) (-0.00174461 -0.00174461 -2055.4) (-0.00271624 -0.00271624 -2210.98)
3500          (-0.012027 -0.012027 -978.446) (-0.000256337 -0.000256337 -970.199) (-0.000298442 -0.000298442 -955.44) (-0.00027531 -0.00027531 -937.122) (-0.000715336 -0.000715336 -917.5) (0.0260378 0.0260378 -716.487) (0.000188287 0.000188287 -867.29) (9.25464e-06 9.25462e-06 -1160.14) (-0.000366549 -0.000366549 -1649.16) (-0.00061957 -0.00061957 -2045.43) (-0.000618575 -0.000618575 -2196.89)
3550          (-0.00787383 -0.00787383 -975.226) (-0.000471704 -0.000471704 -967.34) (-0.00053087 -0.00053087 -953.231) (-0.000565289 -0.000565289 -935.755) (0.000196077 0.000196077 -917.05) (0.0202822 0.0202822 -716.404) (0.000742076 0.000742076 -876.36) (0.000720871 0.000720871 -1169.73) (-6.24767e-05 -6.24767e-05 -1649.37) (-0.00083235 -0.00083235 -2035.67) (-0.00105953 -0.00105953 -2183.17)
3600          (-0.00369359 -0.00369359 -971.871) (-0.000264587 -0.000264587 -964.379) (-0.000253605 -0.000253605 -950.972) (-2.77649e-05 -2.77649e-05 -934.399) (-0.000919584 -0.000919584 -916.72) (0.00262852 0.00262852 -717.536) (0.00216784 0.00216784 -885.273) (0.00250145 0.00250145 -1178.99) (0.000536115 0.000536115 -1649.46) (-0.00179817 -0.00179817 -2026.13) (-0.00274343 -0.00274343 -2169.8)
3650          (0.0109038 0.0109038 -968.894) (-0.000372655 -0.000372655 -961.745) (-0.00042921 -0.00042921 -948.975) (-0.000467871 -0.000467871 -933.236) (-0.000382788 -0.000382788 -916.58) (-0.00825969 -0.00825969 -718.029) (0.000854413 0.000854413 -894.028) (0.000910816 0.000910816 -1187.93) (5.65263e-05 5.65263e-05 -1649.44) (-0.000908333 -0.000908333 -2016.8) (-0.00114309 -0.00114309 -2156.76)
3700          (0.0157954 0.0157954 -966.196) (-0.000689759 -0.000689759 -959.375) (-0.000719052 -0.000719052 -947.205) (-0.000706556 -0.000706556 -932.255) (-0.000604241 -0.000604242 -916.568) (-0.0108447 -0.0108447 -718.42) (0.000761848 0.000761848 -902.628) (0.000807973 0.000807973 -1196.54) (9.05488e-05 9.05488e-05 -1649.3) (-0.00070371 -0.000703709 -2007.66) (-0.000946386 -0.000946386 -2144.06)
3750          (0.0143834 0.0143834 -963.457) (-0.000635191 -0.000635191 -956.988) (-0.000653349 -0.000653349 -945.455) (-0.000639681 -0.000639681 -931.337) (-0.000501693 -0.000501693 -916.632) (-0.00973227 -0.00973227 -719.456) (0.00071514 0.00071514 -911.07) (0.000731281 0.000731281 -1204.85) (4.97329e-05 4.9733e-05 -1649.06) (-0.000685661 -0.000685661 -1998.72) (-0.000885243 -0.000885244 -2131.67)