LIGGGHTS data file 

36000 atoms

1 atom types

0.0   0.006 xlo xhi
0.0   0.006 ylo yhi
0.006 1.006 zlo zhi


Atoms

1 1 0.001 2500 0.0005 0.0005 0.0065
2 1 0.001 2500 0.0015 0.0005 0.0065
3 1 0.001 2500 0.0025 0.0005 0.0065
4 1 0.001 2500 0.0035 0.0005 0.0065
5 1 0.001 2500 0.0045 0.0005 0.0065
6 1 0.001 2500 0.0055 0.0005 0.0065
7 1 0.001 2500 0.0005 0.0015 0.0065
8 1 0.001 2500 0.0015 0.0015 0.0065
9 1 0.001 2500 0.0025 0.0015 0.0065
10 1 0.001 2500 0.0035 0.0015 0.0065
11 1 0.001 2500 0.0045 0.0015 0.0065
12 1 0.001 2500 0.0055 0.0015 0.0065
13 1 0.001 2500 0.0005 0.0025 0.0065
14 1 0.001 2500 0.0015 0.0025 0.0065
15 1 0.001 2500 0.0025 0.0025 0.0065
16 1 0.001 2500 0.0035 0.0025 0.0065
17 1 0.001 2500 0.0045 0.0025 0.0065
18 1 0.001 2500 0.0055 0.0025 0.0065
19 1 0.001 2500 0.0005 0.0035 0.0065
20 1 0.001 2500 0.0015 0.0035 0.0065
21 1 0.001 2500 0.0025 0.0035 0.0065
22 1 0.001 2500 0.0035 0.0035 0.0065
23 1 0.001 2500 0.0045 0.0035 0.0065
24 1 0.001 2500 0.0055 0.0035 0.0065
25 1 0.001 2500 0.0005 0.0045 0.0065
26 1 0.001 2500 0.0015 0.0045 0.0065
27 1 0.001 2500 0.0025 0.0045 0.0065
28 1 0.001 2500 0.0035 0.0045 0.0065
29 1 0.001 2500 0.0045 0.0045 0.0065
30 1 0.001 2500 0.0055 0.0045 0.0065
31 1 0.001 2500 0.0005 0.0055 0.0065
32 1 0.001 2500 0.0015 0.0055 0.0065
33 1 0.001 2500 0.0025 0.0055 0.0065
34 1 0.001 2500 0.0035 0.0055 0.0065
35 1 0.001 2500 0.0045 0.0055 0.0065
36 1 0.001 2500 0.0055 0.0055 0.0065
37 1 0.001 2500 0.0005 0.0005 0.0075
38 1 0.001 2500 0.0015 0.0005 0.0075
39 1 0.001 2500 0.0025 0.0005 0.0075
40 1 0.001 2500 0.0035 0.0005 0.0075
41 1 0.001 2500 0.0045 0.0005 0.0075
42 1 0.001 2500 0.0055 0.0005 0.0075
43 1 0.001 2500 0.0005 0.0015 0.0075
44 1 0.001 2500 0.0015 0.0015 0.0075
45 1 0.001 2500 0.0025 0.0015 0.0075
46 1 0.001 2500 0.0035 0.0015 0.0075
47 1 0.001 2500 0.0045 0.0015 0.0075
48 1 0.001 2500 0.0055 0.0015 0.0075
49 1 0.001 2500 0.0005 0.0025 0.0075
50 1 0.001 2500 0.0015 0.0025 0.0075
51 1 0.001 2500 0.0025 0.0025 0.0075
52 1 0.001 2500 0.0035 0.0025 0.0075
53 1 0.001 2500 0.0045 0.0025 0.0075
54 1 0.001 2500 0.0055 0.0025 0.0075
55 1 0.001 2500 0.0005 0.0035 0.0075
56 1 0.001 2500 0.0015 0.0035 0.0075
57 1 0.001 2500 0.0025 0.0035 0.0075
58 1 0.001 2500 0.0035 0.0035 0.0075
59 1 0.001 2500 0.0045 0.0035 0.0075
60 1 0.001 2500 0.0055 0.0035 0.0075
61 1 0.001 2500 0.0005 0.0045 0.0075
62 1 0.001 2500 0.0015 0.0045 0.0075
63 1 0.001 2500 0.0025 0.0045 0.0075
64 1 0.001 2500 0.0035 0.0045 0.0075
65 1 0.001 2500 0.0045 0.0045 0.0075
66 1 0.001 2500 0.0055 0.0045 0.0075
67 1 0.001 2500 0.0005 0.0055 0.0075
68 1 0.001 2500 0.0015 0.0055 0.0075
69 1 0.001 2500 0.0025 0.0055 0.0075
70 1 0.001 2500 0.0035 0.0055 0.0075
71 1 0.001 2500 0.0045 0.0055 0.0075
72 1 0.001 2500 0.0055 0.0055 0.0075
73 1 0.001 2500 0.0005 0.0005 0.0085
74 1 0.001 2500 0.0015 0.0005 0.0085
75 1 0.001 2500 0.0025 0.0005 0.0085
76 1 0.001 2500 0.0035 0.0005 0.0085
77 1 0.001 2500 0.0045 0.0005 0.0085
78 1 0.001 2500 0.0055 0.0005 0.0085
79 1 0.001 2500 0.0005 0.0015 0.0085
80 1 0.001 2500 0.0015 0.0015 0.0085
81 1 0.001 2500 0.0025 0.0015 0.0085
82 1 0.001 2500 0.0035 0.0015 0.0085
83 1 0.001 2500 0.0045 0.0015 0.0085
84 1 0.001 2500 0.0055 0.0015 0.0085
85 1 0.001 2500 0.0005 0.0025 0.0085
86 1 0.001 2500 0.0015 0.0025 0.0085
87 1 0.001 2500 0.0025 0.0025 0.0085
88 1 0.001 2500 0.0035 0.0025 0.0085
89 1 0.001 2500 0.0045 0.0025 0.0085
90 1 0.001 2500 0.0055 0.0025 0.0085
91 1 0.001 2500 0.0005 0.0035 0.0085
92 1 0.001 2500 0.0015 0.0035 0.0085
93 1 0.001 2500 0.0025 0.0035 0.0085
94 1 0.001 2500 0.0035 0.0035 0.0085
95 1 0.001 2500 0.0045 0.0035 0.0085
96 1 0.001 2500 0.0055 0.0035 0.0085
97 1 0.001 2500 0.0005 0.0045 0.0085
98 1 0.001 2500 0.0015 0.0045 0.0085
99 1 0.001 2500 0.0025 0.0045 0.0085
100 1 0.001 2500 0.0035 0.0045 0.0085
101 1 0.001 2500 0.0045 0.0045 0.0085
102 1 0.001 2500 0.0055 0.0045 0.0085
103 1 0.001 2500 0.0005 0.0055 0.0085
104 1 0.001 2500 0.0015 0.0055 0.0085
105 1 0.001 2500 0.0025 0.0055 0.0085
106 1 0.001 2500 0.0035 0.0055 0.0085
107 1 0.001 2500 0.0045 0.0055 0.0085
108 1 0.001 2500 0.0055 0.0055 0.0085
109 1 0.001 2500 0.0005 0.0005 0.0095
110 1 0.001 2500 0.0015 0.0005 0.0095
111 1 0.001 2500 0.0025 0.0005 0.0095
112 1 0.001 2500 0.0035 0.0005 0.0095
113 1 0.001 2500 0.0045 0.0005 0.0095
114 1 0.001 2500 0.0055 0.0005 0.0095
115 1 0.001 2500 0.0005 0.0015 0.0095
116 1 0.001 2500 0.0015 0.0015 0.0095
117 1 0.001 2500 0.0025 0.0015 0.0095
118 1 0.001 2500 0.0035 0.0015 0.0095
119 1 0.001 2500 0.0045 0.0015 0.0095
120 1 0.001 2500 0.0055 0.0015 0.0095
121 1 0.001 2500 0.0005 0.0025 0.0095
122 1 0.001 2500 0.0015 0.0025 0.0095
123 1 0.001 2500 0.0025 0.0025 0.0095
124 1 0.001 2500 0.0035 0.0025 0.0095
125 1 0.001 2500 0.0045 0.0025 0.0095
126 1 0.001 2500 0.0055 0.0025 0.0095
127 1 0.001 2500 0.0005 0.0035 0.0095
128 1 0.001 2500 0.0015 0.0035 0.0095
129 1 0.001 2500 0.0025 0.0035 0.0095
130 1 0.001 2500 0.0035 0.0035 0.0095
131 1 0.001 2500 0.0045 0.0035 0.0095
132 1 0.001 2500 0.0055 0.0035 0.0095
133 1 0.001 2500 0.0005 0.0045 0.0095
134 1 0.001 2500 0.0015 0.0045 0.0095
135 1 0.001 2500 0.0025 0.0045 0.0095
136 1 0.001 2500 0.0035 0.0045 0.0095
137 1 0.001 2500 0.0045 0.0045 0.0095
138 1 0.001 2500 0.0055 0.0045 0.0095
139 1 0.001 2500 0.0005 0.0055 0.0095
140 1 0.001 2500 0.0015 0.0055 0.0095
141 1 0.001 2500 0.0025 0.0055 0.0095
142 1 0.001 2500 0.0035 0.0055 0.0095
143 1 0.001 2500 0.0045 0.0055 0.0095
144 1 0.001 2500 0.0055 0.0055 0.0095
145 1 0.001 2500 0.0005 0.0005 0.0105
146 1 0.001 2500 0.0015 0.0005 0.0105
147 1 0.001 2500 0.0025 0.0005 0.0105
148 1 0.001 2500 0.0035 0.0005 0.0105
149 1 0.001 2500 0.0045 0.0005 0.0105
150 1 0.001 2500 0.0055 0.0005 0.0105
151 1 0.001 2500 0.0005 0.0015 0.0105
152 1 0.001 2500 0.0015 0.0015 0.0105
153 1 0.001 2500 0.0025 0.0015 0.0105
154 1 0.001 2500 0.0035 0.0015 0.0105
155 1 0.001 2500 0.0045 0.0015 0.0105
156 1 0.001 2500 0.0055 0.0015 0.0105
157 1 0.001 2500 0.0005 0.0025 0.0105
158 1 0.001 2500 0.0015 0.0025 0.0105
159 1 0.001 2500 0.0025 0.0025 0.0105
160 1 0.001 2500 0.0035 0.0025 0.0105
161 1 0.001 2500 0.0045 0.0025 0.0105
162 1 0.001 2500 0.0055 0.0025 0.0105
163 1 0.001 2500 0.0005 0.0035 0.0105
164 1 0.001 2500 0.0015 0.0035 0.0105
165 1 0.001 2500 0.0025 0.0035 0.0105
166 1 0.001 2500 0.0035 0.0035 0.0105
167 1 0.001 2500 0.0045 0.0035 0.0105
168 1 0.001 2500 0.0055 0.0035 0.0105
169 1 0.001 2500 0.0005 0.0045 0.0105
170 1 0.001 2500 0.0015 0.0045 0.0105
171 1 0.001 2500 0.0025 0.0045 0.0105
172 1 0.001 2500 0.0035 0.0045 0.0105
173 1 0.001 2500 0.0045 0.0045 0.0105
174 1 0.001 2500 0.0055 0.0045 0.0105
175 1 0.001 2500 0.0005 0.0055 0.0105
176 1 0.001 2500 0.0015 0.0055 0.0105
177 1 0.001 2500 0.0025 0.0055 0.0105
178 1 0.001 2500 0.0035 0.0055 0.0105
179 1 0.001 2500 0.0045 0.0055 0.0105
180 1 0.001 2500 0.0055 0.0055 0.0105
181 1 0.001 2500 0.0005 0.0005 0.0115
182 1 0.001 2500 0.0015 0.0005 0.0115
183 1 0.001 2500 0.0025 0.0005 0.0115
184 1 0.001 2500 0.0035 0.0005 0.0115
185 1 0.001 2500 0.0045 0.0005 0.0115
186 1 0.001 2500 0.0055 0.0005 0.0115
187 1 0.001 2500 0.0005 0.0015 0.0115
188 1 0.001 2500 0.0015 0.0015 0.0115
189 1 0.001 2500 0.0025 0.0015 0.0115
190 1 0.001 2500 0.0035 0.0015 0.0115
191 1 0.001 2500 0.0045 0.0015 0.0115
192 1 0.001 2500 0.0055 0.0015 0.0115
193 1 0.001 2500 0.0005 0.0025 0.0115
194 1 0.001 2500 0.0015 0.0025 0.0115
195 1 0.001 2500 0.0025 0.0025 0.0115
196 1 0.001 2500 0.0035 0.0025 0.0115
197 1 0.001 2500 0.0045 0.0025 0.0115
198 1 0.001 2500 0.0055 0.0025 0.0115
199 1 0.001 2500 0.0005 0.0035 0.0115
200 1 0.001 2500 0.0015 0.0035 0.0115
201 1 0.001 2500 0.0025 0.0035 0.0115
202 1 0.001 2500 0.0035 0.0035 0.0115
203 1 0.001 2500 0.0045 0.0035 0.0115
204 1 0.001 2500 0.0055 0.0035 0.0115
205 1 0.001 2500 0.0005 0.0045 0.0115
206 1 0.001 2500 0.0015 0.0045 0.0115
207 1 0.001 2500 0.0025 0.0045 0.0115
208 1 0.001 2500 0.0035 0.0045 0.0115
209 1 0.001 2500 0.0045 0.0045 0.0115
210 1 0.001 2500 0.0055 0.0045 0.0115
211 1 0.001 2500 0.0005 0.0055 0.0115
212 1 0.001 2500 0.0015 0.0055 0.0115
213 1 0.001 2500 0.0025 0.0055 0.0115
214 1 0.001 2500 0.0035 0.0055 0.0115
215 1 0.001 2500 0.0045 0.0055 0.0115
216 1 0.001 2500 0.0055 0.0055 0.0115
217 1 0.001 2500 0.0005 0.0005 0.0125
218 1 0.001 2500 0.0015 0.0005 0.0125
219 1 0.001 2500 0.0025 0.0005 0.0125
220 1 0.001 2500 0.0035 0.0005 0.0125
221 1 0.001 2500 0.0045 0.0005 0.0125
222 1 0.001 2500 0.0055 0.0005 0.0125
223 1 0.001 2500 0.0005 0.0015 0.0125
224 1 0.001 2500 0.0015 0.0015 0.0125
225 1 0.001 2500 0.0025 0.0015 0.0125
226 1 0.001 2500 0.0035 0.0015 0.0125
227 1 0.001 2500 0.0045 0.0015 0.0125
228 1 0.001 2500 0.0055 0.0015 0.0125
229 1 0.001 2500 0.0005 0.0025 0.0125
230 1 0.001 2500 0.0015 0.0025 0.0125
231 1 0.001 2500 0.0025 0.0025 0.0125
232 1 0.001 2500 0.0035 0.0025 0.0125
233 1 0.001 2500 0.0045 0.0025 0.0125
234 1 0.001 2500 0.0055 0.0025 0.0125
235 1 0.001 2500 0.0005 0.0035 0.0125
236 1 0.001 2500 0.0015 0.0035 0.0125
237 1 0.001 2500 0.0025 0.0035 0.0125
238 1 0.001 2500 0.0035 0.0035 0.0125
239 1 0.001 2500 0.0045 0.0035 0.0125
240 1 0.001 2500 0.0055 0.0035 0.0125
241 1 0.001 2500 0.0005 0.0045 0.0125
242 1 0.001 2500 0.0015 0.0045 0.0125
243 1 0.001 2500 0.0025 0.0045 0.0125
244 1 0.001 2500 0.0035 0.0045 0.0125
245 1 0.001 2500 0.0045 0.0045 0.0125
246 1 0.001 2500 0.0055 0.0045 0.0125
247 1 0.001 2500 0.0005 0.0055 0.0125
248 1 0.001 2500 0.0015 0.0055 0.0125
249 1 0.001 2500 0.0025 0.0055 0.0125
250 1 0.001 2500 0.0035 0.0055 0.0125
251 1 0.001 2500 0.0045 0.0055 0.0125
252 1 0.001 2500 0.0055 0.0055 0.0125
253 1 0.001 2500 0.0005 0.0005 0.0135
254 1 0.001 2500 0.0015 0.0005 0.0135
255 1 0.001 2500 0.0025 0.0005 0.0135
256 1 0.001 2500 0.0035 0.0005 0.0135
257 1 0.001 2500 0.0045 0.0005 0.0135
258 1 0.001 2500 0.0055 0.0005 0.0135
259 1 0.001 2500 0.0005 0.0015 0.0135
260 1 0.001 2500 0.0015 0.0015 0.0135
261 1 0.001 2500 0.0025 0.0015 0.0135
262 1 0.001 2500 0.0035 0.0015 0.0135
263 1 0.001 2500 0.0045 0.0015 0.0135
264 1 0.001 2500 0.0055 0.0015 0.0135
265 1 0.001 2500 0.0005 0.0025 0.0135
266 1 0.001 2500 0.0015 0.0025 0.0135
267 1 0.001 2500 0.0025 0.0025 0.0135
268 1 0.001 2500 0.0035 0.0025 0.0135
269 1 0.001 2500 0.0045 0.0025 0.0135
270 1 0.001 2500 0.0055 0.0025 0.0135
271 1 0.001 2500 0.0005 0.0035 0.0135
272 1 0.001 2500 0.0015 0.0035 0.0135
273 1 0.001 2500 0.0025 0.0035 0.0135
274 1 0.001 2500 0.0035 0.0035 0.0135
275 1 0.001 2500 0.0045 0.0035 0.0135
276 1 0.001 2500 0.0055 0.0035 0.0135
277 1 0.001 2500 0.0005 0.0045 0.0135
278 1 0.001 2500 0.0015 0.0045 0.0135
279 1 0.001 2500 0.0025 0.0045 0.0135
280 1 0.001 2500 0.0035 0.0045 0.0135
281 1 0.001 2500 0.0045 0.0045 0.0135
282 1 0.001 2500 0.0055 0.0045 0.0135
283 1 0.001 2500 0.0005 0.0055 0.0135
284 1 0.001 2500 0.0015 0.0055 0.0135
285 1 0.001 2500 0.0025 0.0055 0.0135
286 1 0.001 2500 0.0035 0.0055 0.0135
287 1 0.001 2500 0.0045 0.0055 0.0135
288 1 0.001 2500 0.0055 0.0055 0.0135
289 1 0.001 2500 0.0005 0.0005 0.0145
290 1 0.001 2500 0.0015 0.0005 0.0145
291 1 0.001 2500 0.0025 0.0005 0.0145
292 1 0.001 2500 0.0035 0.0005 0.0145
293 1 0.001 2500 0.0045 0.0005 0.0145
294 1 0.001 2500 0.0055 0.0005 0.0145
295 1 0.001 2500 0.0005 0.0015 0.0145
296 1 0.001 2500 0.0015 0.0015 0.0145
297 1 0.001 2500 0.0025 0.0015 0.0145
298 1 0.001 2500 0.0035 0.0015 0.0145
299 1 0.001 2500 0.0045 0.0015 0.0145
300 1 0.001 2500 0.0055 0.0015 0.0145
301 1 0.001 2500 0.0005 0.0025 0.0145
302 1 0.001 2500 0.0015 0.0025 0.0145
303 1 0.001 2500 0.0025 0.0025 0.0145
304 1 0.001 2500 0.0035 0.0025 0.0145
305 1 0.001 2500 0.0045 0.0025 0.0145
306 1 0.001 2500 0.0055 0.0025 0.0145
307 1 0.001 2500 0.0005 0.0035 0.0145
308 1 0.001 2500 0.0015 0.0035 0.0145
309 1 0.001 2500 0.0025 0.0035 0.0145
310 1 0.001 2500 0.0035 0.0035 0.0145
311 1 0.001 2500 0.0045 0.0035 0.0145
312 1 0.001 2500 0.0055 0.0035 0.0145
313 1 0.001 2500 0.0005 0.0045 0.0145
314 1 0.001 2500 0.0015 0.0045 0.0145
315 1 0.001 2500 0.0025 0.0045 0.0145
316 1 0.001 2500 0.0035 0.0045 0.0145
317 1 0.001 2500 0.0045 0.0045 0.0145
318 1 0.001 2500 0.0055 0.0045 0.0145
319 1 0.001 2500 0.0005 0.0055 0.0145
320 1 0.001 2500 0.0015 0.0055 0.0145
321 1 0.001 2500 0.0025 0.0055 0.0145
322 1 0.001 2500 0.0035 0.0055 0.0145
323 1 0.001 2500 0.0045 0.0055 0.0145
324 1 0.001 2500 0.0055 0.0055 0.0145
325 1 0.001 2500 0.0005 0.0005 0.0155
326 1 0.001 2500 0.0015 0.0005 0.0155
327 1 0.001 2500 0.0025 0.0005 0.0155
328 1 0.001 2500 0.0035 0.0005 0.0155
329 1 0.001 2500 0.0045 0.0005 0.0155
330 1 0.001 2500 0.0055 0.0005 0.0155
331 1 0.001 2500 0.0005 0.0015 0.0155
332 1 0.001 2500 0.0015 0.0015 0.0155
333 1 0.001 2500 0.0025 0.0015 0.0155
334 1 0.001 2500 0.0035 0.0015 0.0155
335 1 0.001 2500 0.0045 0.0015 0.0155
336 1 0.001 2500 0.0055 0.0015 0.0155
337 1 0.001 2500 0.0005 0.0025 0.0155
338 1 0.001 2500 0.0015 0.0025 0.0155
339 1 0.001 2500 0.0025 0.0025 0.0155
340 1 0.001 2500 0.0035 0.0025 0.0155
341 1 0.001 2500 0.0045 0.0025 0.0155
342 1 0.001 2500 0.0055 0.0025 0.0155
343 1 0.001 2500 0.0005 0.0035 0.0155
344 1 0.001 2500 0.0015 0.0035 0.0155
345 1 0.001 2500 0.0025 0.0035 0.0155
346 1 0.001 2500 0.0035 0.0035 0.0155
347 1 0.001 2500 0.0045 0.0035 0.0155
348 1 0.001 2500 0.0055 0.0035 0.0155
349 1 0.001 2500 0.0005 0.0045 0.0155
350 1 0.001 2500 0.0015 0.0045 0.0155
351 1 0.001 2500 0.0025 0.0045 0.0155
352 1 0.001 2500 0.0035 0.0045 0.0155
353 1 0.001 2500 0.0045 0.0045 0.0155
354 1 0.001 2500 0.0055 0.0045 0.0155
355 1 0.001 2500 0.0005 0.0055 0.0155
356 1 0.001 2500 0.0015 0.0055 0.0155
357 1 0.001 2500 0.0025 0.0055 0.0155
358 1 0.001 2500 0.0035 0.0055 0.0155
359 1 0.001 2500 0.0045 0.0055 0.0155
360 1 0.001 2500 0.0055 0.0055 0.0155
361 1 0.001 2500 0.0005 0.0005 0.0165
362 1 0.001 2500 0.0015 0.0005 0.0165
363 1 0.001 2500 0.0025 0.0005 0.0165
364 1 0.001 2500 0.0035 0.0005 0.0165
365 1 0.001 2500 0.0045 0.0005 0.0165
366 1 0.001 2500 0.0055 0.0005 0.0165
367 1 0.001 2500 0.0005 0.0015 0.0165
368 1 0.001 2500 0.0015 0.0015 0.0165
369 1 0.001 2500 0.0025 0.0015 0.0165
370 1 0.001 2500 0.0035 0.0015 0.0165
371 1 0.001 2500 0.0045 0.0015 0.0165
372 1 0.001 2500 0.0055 0.0015 0.0165
373 1 0.001 2500 0.0005 0.0025 0.0165
374 1 0.001 2500 0.0015 0.0025 0.0165
375 1 0.001 2500 0.0025 0.0025 0.0165
376 1 0.001 2500 0.0035 0.0025 0.0165
377 1 0.001 2500 0.0045 0.0025 0.0165
378 1 0.001 2500 0.0055 0.0025 0.0165
379 1 0.001 2500 0.0005 0.0035 0.0165
380 1 0.001 2500 0.0015 0.0035 0.0165
381 1 0.001 2500 0.0025 0.0035 0.0165
382 1 0.001 2500 0.0035 0.0035 0.0165
383 1 0.001 2500 0.0045 0.0035 0.0165
384 1 0.001 2500 0.0055 0.0035 0.0165
385 1 0.001 2500 0.0005 0.0045 0.0165
386 1 0.001 2500 0.0015 0.0045 0.0165
387 1 0.001 2500 0.0025 0.0045 0.0165
388 1 0.001 2500 0.0035 0.0045 0.0165
389 1 0.001 2500 0.0045 0.0045 0.0165
390 1 0.001 2500 0.0055 0.0045 0.0165
391 1 0.001 2500 0.0005 0.0055 0.0165
392 1 0.001 2500 0.0015 0.0055 0.0165
393 1 0.001 2500 0.0025 0.0055 0.0165
394 1 0.001 2500 0.0035 0.0055 0.0165
395 1 0.001 2500 0.0045 0.0055 0.0165
396 1 0.001 2500 0.0055 0.0055 0.0165
397 1 0.001 2500 0.0005 0.0005 0.0175
398 1 0.001 2500 0.0015 0.0005 0.0175
399 1 0.001 2500 0.0025 0.0005 0.0175
400 1 0.001 2500 0.0035 0.0005 0.0175
401 1 0.001 2500 0.0045 0.0005 0.0175
402 1 0.001 2500 0.0055 0.0005 0.0175
403 1 0.001 2500 0.0005 0.0015 0.0175
404 1 0.001 2500 0.0015 0.0015 0.0175
405 1 0.001 2500 0.0025 0.0015 0.0175
406 1 0.001 2500 0.0035 0.0015 0.0175
407 1 0.001 2500 0.0045 0.0015 0.0175
408 1 0.001 2500 0.0055 0.0015 0.0175
409 1 0.001 2500 0.0005 0.0025 0.0175
410 1 0.001 2500 0.0015 0.0025 0.0175
411 1 0.001 2500 0.0025 0.0025 0.0175
412 1 0.001 2500 0.0035 0.0025 0.0175
413 1 0.001 2500 0.0045 0.0025 0.0175
414 1 0.001 2500 0.0055 0.0025 0.0175
415 1 0.001 2500 0.0005 0.0035 0.0175
416 1 0.001 2500 0.0015 0.0035 0.0175
417 1 0.001 2500 0.0025 0.0035 0.0175
418 1 0.001 2500 0.0035 0.0035 0.0175
419 1 0.001 2500 0.0045 0.0035 0.0175
420 1 0.001 2500 0.0055 0.0035 0.0175
421 1 0.001 2500 0.0005 0.0045 0.0175
422 1 0.001 2500 0.0015 0.0045 0.0175
423 1 0.001 2500 0.0025 0.0045 0.0175
424 1 0.001 2500 0.0035 0.0045 0.0175
425 1 0.001 2500 0.0045 0.0045 0.0175
426 1 0.001 2500 0.0055 0.0045 0.0175
427 1 0.001 2500 0.0005 0.0055 0.0175
428 1 0.001 2500 0.0015 0.0055 0.0175
429 1 0.001 2500 0.0025 0.0055 0.0175
430 1 0.001 2500 0.0035 0.0055 0.0175
431 1 0.001 2500 0.0045 0.0055 0.0175
432 1 0.001 2500 0.0055 0.0055 0.0175
433 1 0.001 2500 0.0005 0.0005 0.0185
434 1 0.001 2500 0.0015 0.0005 0.0185
435 1 0.001 2500 0.0025 0.0005 0.0185
436 1 0.001 2500 0.0035 0.0005 0.0185
437 1 0.001 2500 0.0045 0.0005 0.0185
438 1 0.001 2500 0.0055 0.0005 0.0185
439 1 0.001 2500 0.0005 0.0015 0.0185
440 1 0.001 2500 0.0015 0.0015 0.0185
441 1 0.001 2500 0.0025 0.0015 0.0185
442 1 0.001 2500 0.0035 0.0015 0.0185
443 1 0.001 2500 0.0045 0.0015 0.0185
444 1 0.001 2500 0.0055 0.0015 0.0185
445 1 0.001 2500 0.0005 0.0025 0.0185
446 1 0.001 2500 0.0015 0.0025 0.0185
447 1 0.001 2500 0.0025 0.0025 0.0185
448 1 0.001 2500 0.0035 0.0025 0.0185
449 1 0.001 2500 0.0045 0.0025 0.0185
450 1 0.001 2500 0.0055 0.0025 0.0185
451 1 0.001 2500 0.0005 0.0035 0.0185
452 1 0.001 2500 0.0015 0.0035 0.0185
453 1 0.001 2500 0.0025 0.0035 0.0185
454 1 0.001 2500 0.0035 0.0035 0.0185
455 1 0.001 2500 0.0045 0.0035 0.0185
456 1 0.001 2500 0.0055 0.0035 0.0185
457 1 0.001 2500 0.0005 0.0045 0.0185
458 1 0.001 2500 0.0015 0.0045 0.0185
459 1 0.001 2500 0.0025 0.0045 0.0185
460 1 0.001 2500 0.0035 0.0045 0.0185
461 1 0.001 2500 0.0045 0.0045 0.0185
462 1 0.001 2500 0.0055 0.0045 0.0185
463 1 0.001 2500 0.0005 0.0055 0.0185
464 1 0.001 2500 0.0015 0.0055 0.0185
465 1 0.001 2500 0.0025 0.0055 0.0185
466 1 0.001 2500 0.0035 0.0055 0.0185
467 1 0.001 2500 0.0045 0.0055 0.0185
468 1 0.001 2500 0.0055 0.0055 0.0185
469 1 0.001 2500 0.0005 0.0005 0.0195
470 1 0.001 2500 0.0015 0.0005 0.0195
471 1 0.001 2500 0.0025 0.0005 0.0195
472 1 0.001 2500 0.0035 0.0005 0.0195
473 1 0.001 2500 0.0045 0.0005 0.0195
474 1 0.001 2500 0.0055 0.0005 0.0195
475 1 0.001 2500 0.0005 0.0015 0.0195
476 1 0.001 2500 0.0015 0.0015 0.0195
477 1 0.001 2500 0.0025 0.0015 0.0195
478 1 0.001 2500 0.0035 0.0015 0.0195
479 1 0.001 2500 0.0045 0.0015 0.0195
480 1 0.001 2500 0.0055 0.0015 0.0195
481 1 0.001 2500 0.0005 0.0025 0.0195
482 1 0.001 2500 0.0015 0.0025 0.0195
483 1 0.001 2500 0.0025 0.0025 0.0195
484 1 0.001 2500 0.0035 0.0025 0.0195
485 1 0.001 2500 0.0045 0.0025 0.0195
486 1 0.001 2500 0.0055 0.0025 0.0195
487 1 0.001 2500 0.0005 0.0035 0.0195
488 1 0.001 2500 0.0015 0.0035 0.0195
489 1 0.001 2500 0.0025 0.0035 0.0195
490 1 0.001 2500 0.0035 0.0035 0.0195
491 1 0.001 2500 0.0045 0.0035 0.0195
492 1 0.001 2500 0.0055 0.0035 0.0195
493 1 0.001 2500 0.0005 0.0045 0.0195
494 1 0.001 2500 0.0015 0.0045 0.0195
495 1 0.001 2500 0.0025 0.0045 0.0195
496 1 0.001 2500 0.0035 0.0045 0.0195
497 1 0.001 2500 0.0045 0.0045 0.0195
498 1 0.001 2500 0.0055 0.0045 0.0195
499 1 0.001 2500 0.0005 0.0055 0.0195
500 1 0.001 2500 0.0015 0.0055 0.0195
501 1 0.001 2500 0.0025 0.0055 0.0195
502 1 0.001 2500 0.0035 0.0055 0.0195
503 1 0.001 2500 0.0045 0.0055 0.0195
504 1 0.001 2500 0.0055 0.0055 0.0195
505 1 0.001 2500 0.0005 0.0005 0.0205
506 1 0.001 2500 0.0015 0.0005 0.0205
507 1 0.001 2500 0.0025 0.0005 0.0205
508 1 0.001 2500 0.0035 0.0005 0.0205
509 1 0.001 2500 0.0045 0.0005 0.0205
510 1 0.001 2500 0.0055 0.0005 0.0205
511 1 0.001 2500 0.0005 0.0015 0.0205
512 1 0.001 2500 0.0015 0.0015 0.0205
513 1 0.001 2500 0.0025 0.0015 0.0205
514 1 0.001 2500 0.0035 0.0015 0.0205
515 1 0.001 2500 0.0045 0.0015 0.0205
516 1 0.001 2500 0.0055 0.0015 0.0205
517 1 0.001 2500 0.0005 0.0025 0.0205
518 1 0.001 2500 0.0015 0.0025 0.0205
519 1 0.001 2500 0.0025 0.0025 0.0205
520 1 0.001 2500 0.0035 0.0025 0.0205
521 1 0.001 2500 0.0045 0.0025 0.0205
522 1 0.001 2500 0.0055 0.0025 0.0205
523 1 0.001 2500 0.0005 0.0035 0.0205
524 1 0.001 2500 0.0015 0.0035 0.0205
525 1 0.001 2500 0.0025 0.0035 0.0205
526 1 0.001 2500 0.0035 0.0035 0.0205
527 1 0.001 2500 0.0045 0.0035 0.0205
528 1 0.001 2500 0.0055 0.0035 0.0205
529 1 0.001 2500 0.0005 0.0045 0.0205
530 1 0.001 2500 0.0015 0.0045 0.0205
531 1 0.001 2500 0.0025 0.0045 0.0205
532 1 0.001 2500 0.0035 0.0045 0.0205
533 1 0.001 2500 0.0045 0.0045 0.0205
534 1 0.001 2500 0.0055 0.0045 0.0205
535 1 0.001 2500 0.0005 0.0055 0.0205
536 1 0.001 2500 0.0015 0.0055 0.0205
537 1 0.001 2500 0.0025 0.0055 0.0205
538 1 0.001 2500 0.0035 0.0055 0.0205
539 1 0.001 2500 0.0045 0.0055 0.0205
540 1 0.001 2500 0.0055 0.0055 0.0205
541 1 0.001 2500 0.0005 0.0005 0.0215
542 1 0.001 2500 0.0015 0.0005 0.0215
543 1 0.001 2500 0.0025 0.0005 0.0215
544 1 0.001 2500 0.0035 0.0005 0.0215
545 1 0.001 2500 0.0045 0.0005 0.0215
546 1 0.001 2500 0.0055 0.0005 0.0215
547 1 0.001 2500 0.0005 0.0015 0.0215
548 1 0.001 2500 0.0015 0.0015 0.0215
549 1 0.001 2500 0.0025 0.0015 0.0215
550 1 0.001 2500 0.0035 0.0015 0.0215
551 1 0.001 2500 0.0045 0.0015 0.0215
552 1 0.001 2500 0.0055 0.0015 0.0215
553 1 0.001 2500 0.0005 0.0025 0.0215
554 1 0.001 2500 0.0015 0.0025 0.0215
555 1 0.001 2500 0.0025 0.0025 0.0215
556 1 0.001 2500 0.0035 0.0025 0.0215
557 1 0.001 2500 0.0045 0.0025 0.0215
558 1 0.001 2500 0.0055 0.0025 0.0215
559 1 0.001 2500 0.0005 0.0035 0.0215
560 1 0.001 2500 0.0015 0.0035 0.0215
561 1 0.001 2500 0.0025 0.0035 0.0215
562 1 0.001 2500 0.0035 0.0035 0.0215
563 1 0.001 2500 0.0045 0.0035 0.0215
564 1 0.001 2500 0.0055 0.0035 0.0215
565 1 0.001 2500 0.0005 0.0045 0.0215
566 1 0.001 2500 0.0015 0.0045 0.0215
567 1 0.001 2500 0.0025 0.0045 0.0215
568 1 0.001 2500 0.0035 0.0045 0.0215
569 1 0.001 2500 0.0045 0.0045 0.0215
570 1 0.001 2500 0.0055 0.0045 0.0215
571 1 0.001 2500 0.0005 0.0055 0.0215
572 1 0.001 2500 0.0015 0.0055 0.0215
573 1 0.001 2500 0.0025 0.0055 0.0215
574 1 0.001 2500 0.0035 0.0055 0.0215
575 1 0.001 2500 0.0045 0.0055 0.0215
576 1 0.001 2500 0.0055 0.0055 0.0215
577 1 0.001 2500 0.0005 0.0005 0.0225
578 1 0.001 2500 0.0015 0.0005 0.0225
579 1 0.001 2500 0.0025 0.0005 0.0225
580 1 0.001 2500 0.0035 0.0005 0.0225
581 1 0.001 2500 0.0045 0.0005 0.0225
582 1 0.001 2500 0.0055 0.0005 0.0225
583 1 0.001 2500 0.0005 0.0015 0.0225
584 1 0.001 2500 0.0015 0.0015 0.0225
585 1 0.001 2500 0.0025 0.0015 0.0225
586 1 0.001 2500 0.0035 0.0015 0.0225
587 1 0.001 2500 0.0045 0.0015 0.0225
588 1 0.001 2500 0.0055 0.0015 0.0225
589 1 0.001 2500 0.0005 0.0025 0.0225
590 1 0.001 2500 0.0015 0.0025 0.0225
591 1 0.001 2500 0.0025 0.0025 0.0225
592 1 0.001 2500 0.0035 0.0025 0.0225
593 1 0.001 2500 0.0045 0.0025 0.0225
594 1 0.001 2500 0.0055 0.0025 0.0225
595 1 0.001 2500 0.0005 0.0035 0.0225
596 1 0.001 2500 0.0015 0.0035 0.0225
597 1 0.001 2500 0.0025 0.0035 0.0225
598 1 0.001 2500 0.0035 0.0035 0.0225
599 1 0.001 2500 0.0045 0.0035 0.0225
600 1 0.001 2500 0.0055 0.0035 0.0225
601 1 0.001 2500 0.0005 0.0045 0.0225
602 1 0.001 2500 0.0015 0.0045 0.0225
603 1 0.001 2500 0.0025 0.0045 0.0225
604 1 0.001 2500 0.0035 0.0045 0.0225
605 1 0.001 2500 0.0045 0.0045 0.0225
606 1 0.001 2500 0.0055 0.0045 0.0225
607 1 0.001 2500 0.0005 0.0055 0.0225
608 1 0.001 2500 0.0015 0.0055 0.0225
609 1 0.001 2500 0.0025 0.0055 0.0225
610 1 0.001 2500 0.0035 0.0055 0.0225
611 1 0.001 2500 0.0045 0.0055 0.0225
612 1 0.001 2500 0.0055 0.0055 0.0225
613 1 0.001 2500 0.0005 0.0005 0.0235
614 1 0.001 2500 0.0015 0.0005 0.0235
615 1 0.001 2500 0.0025 0.0005 0.0235
616 1 0.001 2500 0.0035 0.0005 0.0235
617 1 0.001 2500 0.0045 0.0005 0.0235
618 1 0.001 2500 0.0055 0.0005 0.0235
619 1 0.001 2500 0.0005 0.0015 0.0235
620 1 0.001 2500 0.0015 0.0015 0.0235
621 1 0.001 2500 0.0025 0.0015 0.0235
622 1 0.001 2500 0.0035 0.0015 0.0235
623 1 0.001 2500 0.0045 0.0015 0.0235
624 1 0.001 2500 0.0055 0.0015 0.0235
625 1 0.001 2500 0.0005 0.0025 0.0235
626 1 0.001 2500 0.0015 0.0025 0.0235
627 1 0.001 2500 0.0025 0.0025 0.0235
628 1 0.001 2500 0.0035 0.0025 0.0235
629 1 0.001 2500 0.0045 0.0025 0.0235
630 1 0.001 2500 0.0055 0.0025 0.0235
631 1 0.001 2500 0.0005 0.0035 0.0235
632 1 0.001 2500 0.0015 0.0035 0.0235
633 1 0.001 2500 0.0025 0.0035 0.0235
634 1 0.001 2500 0.0035 0.0035 0.0235
635 1 0.001 2500 0.0045 0.0035 0.0235
636 1 0.001 2500 0.0055 0.0035 0.0235
637 1 0.001 2500 0.0005 0.0045 0.0235
638 1 0.001 2500 0.0015 0.0045 0.0235
639 1 0.001 2500 0.0025 0.0045 0.0235
640 1 0.001 2500 0.0035 0.0045 0.0235
641 1 0.001 2500 0.0045 0.0045 0.0235
642 1 0.001 2500 0.0055 0.0045 0.0235
643 1 0.001 2500 0.0005 0.0055 0.0235
644 1 0.001 2500 0.0015 0.0055 0.0235
645 1 0.001 2500 0.0025 0.0055 0.0235
646 1 0.001 2500 0.0035 0.0055 0.0235
647 1 0.001 2500 0.0045 0.0055 0.0235
648 1 0.001 2500 0.0055 0.0055 0.0235
649 1 0.001 2500 0.0005 0.0005 0.0245
650 1 0.001 2500 0.0015 0.0005 0.0245
651 1 0.001 2500 0.0025 0.0005 0.0245
652 1 0.001 2500 0.0035 0.0005 0.0245
653 1 0.001 2500 0.0045 0.0005 0.0245
654 1 0.001 2500 0.0055 0.0005 0.0245
655 1 0.001 2500 0.0005 0.0015 0.0245
656 1 0.001 2500 0.0015 0.0015 0.0245
657 1 0.001 2500 0.0025 0.0015 0.0245
658 1 0.001 2500 0.0035 0.0015 0.0245
659 1 0.001 2500 0.0045 0.0015 0.0245
660 1 0.001 2500 0.0055 0.0015 0.0245
661 1 0.001 2500 0.0005 0.0025 0.0245
662 1 0.001 2500 0.0015 0.0025 0.0245
663 1 0.001 2500 0.0025 0.0025 0.0245
664 1 0.001 2500 0.0035 0.0025 0.0245
665 1 0.001 2500 0.0045 0.0025 0.0245
666 1 0.001 2500 0.0055 0.0025 0.0245
667 1 0.001 2500 0.0005 0.0035 0.0245
668 1 0.001 2500 0.0015 0.0035 0.0245
669 1 0.001 2500 0.0025 0.0035 0.0245
670 1 0.001 2500 0.0035 0.0035 0.0245
671 1 0.001 2500 0.0045 0.0035 0.0245
672 1 0.001 2500 0.0055 0.0035 0.0245
673 1 0.001 2500 0.0005 0.0045 0.0245
674 1 0.001 2500 0.0015 0.0045 0.0245
675 1 0.001 2500 0.0025 0.0045 0.0245
676 1 0.001 2500 0.0035 0.0045 0.0245
677 1 0.001 2500 0.0045 0.0045 0.0245
678 1 0.001 2500 0.0055 0.0045 0.0245
679 1 0.001 2500 0.0005 0.0055 0.0245
680 1 0.001 2500 0.0015 0.0055 0.0245
681 1 0.001 2500 0.0025 0.0055 0.0245
682 1 0.001 2500 0.0035 0.0055 0.0245
683 1 0.001 2500 0.0045 0.0055 0.0245
684 1 0.001 2500 0.0055 0.0055 0.0245
685 1 0.001 2500 0.0005 0.0005 0.0255
686 1 0.001 2500 0.0015 0.0005 0.0255
687 1 0.001 2500 0.0025 0.0005 0.0255
688 1 0.001 2500 0.0035 0.0005 0.0255
689 1 0.001 2500 0.0045 0.0005 0.0255
690 1 0.001 2500 0.0055 0.0005 0.0255
691 1 0.001 2500 0.0005 0.0015 0.0255
692 1 0.001 2500 0.0015 0.0015 0.0255
693 1 0.001 2500 0.0025 0.0015 0.0255
694 1 0.001 2500 0.0035 0.0015 0.0255
695 1 0.001 2500 0.0045 0.0015 0.0255
696 1 0.001 2500 0.0055 0.0015 0.0255
697 1 0.001 2500 0.0005 0.0025 0.0255
698 1 0.001 2500 0.0015 0.0025 0.0255
699 1 0.001 2500 0.0025 0.0025 0.0255
700 1 0.001 2500 0.0035 0.0025 0.0255
701 1 0.001 2500 0.0045 0.0025 0.0255
702 1 0.001 2500 0.0055 0.0025 0.0255
703 1 0.001 2500 0.0005 0.0035 0.0255
704 1 0.001 2500 0.0015 0.0035 0.0255
705 1 0.001 2500 0.0025 0.0035 0.0255
706 1 0.001 2500 0.0035 0.0035 0.0255
707 1 0.001 2500 0.0045 0.0035 0.0255
708 1 0.001 2500 0.0055 0.0035 0.0255
709 1 0.001 2500 0.0005 0.0045 0.0255
710 1 0.001 2500 0.0015 0.0045 0.0255
711 1 0.001 2500 0.0025 0.0045 0.0255
712 1 0.001 2500 0.0035 0.0045 0.0255
713 1 0.001 2500 0.0045 0.0045 0.0255
714 1 0.001 2500 0.0055 0.0045 0.0255
715 1 0.001 2500 0.0005 0.0055 0.0255
716 1 0.001 2500 0.0015 0.0055 0.0255
717 1 0.001 2500 0.0025 0.0055 0.0255
718 1 0.001 2500 0.0035 0.0055 0.0255
719 1 0.001 2500 0.0045 0.0055 0.0255
720 1 0.001 2500 0.0055 0.0055 0.0255
721 1 0.001 2500 0.0005 0.0005 0.0265
722 1 0.001 2500 0.0015 0.0005 0.0265
723 1 0.001 2500 0.0025 0.0005 0.0265
724 1 0.001 2500 0.0035 0.0005 0.0265
725 1 0.001 2500 0.0045 0.0005 0.0265
726 1 0.001 2500 0.0055 0.0005 0.0265
727 1 0.001 2500 0.0005 0.0015 0.0265
728 1 0.001 2500 0.0015 0.0015 0.0265
729 1 0.001 2500 0.0025 0.0015 0.0265
730 1 0.001 2500 0.0035 0.0015 0.0265
731 1 0.001 2500 0.0045 0.0015 0.0265
732 1 0.001 2500 0.0055 0.0015 0.0265
733 1 0.001 2500 0.0005 0.0025 0.0265
734 1 0.001 2500 0.0015 0.0025 0.0265
735 1 0.001 2500 0.0025 0.0025 0.0265
736 1 0.001 2500 0.0035 0.0025 0.0265
737 1 0.001 2500 0.0045 0.0025 0.0265
738 1 0.001 2500 0.0055 0.0025 0.0265
739 1 0.001 2500 0.0005 0.0035 0.0265
740 1 0.001 2500 0.0015 0.0035 0.0265
741 1 0.001 2500 0.0025 0.0035 0.0265
742 1 0.001 2500 0.0035 0.0035 0.0265
743 1 0.001 2500 0.0045 0.0035 0.0265
744 1 0.001 2500 0.0055 0.0035 0.0265
745 1 0.001 2500 0.0005 0.0045 0.0265
746 1 0.001 2500 0.0015 0.0045 0.0265
747 1 0.001 2500 0.0025 0.0045 0.0265
748 1 0.001 2500 0.0035 0.0045 0.0265
749 1 0.001 2500 0.0045 0.0045 0.0265
750 1 0.001 2500 0.0055 0.0045 0.0265
751 1 0.001 2500 0.0005 0.0055 0.0265
752 1 0.001 2500 0.0015 0.0055 0.0265
753 1 0.001 2500 0.0025 0.0055 0.0265
754 1 0.001 2500 0.0035 0.0055 0.0265
755 1 0.001 2500 0.0045 0.0055 0.0265
756 1 0.001 2500 0.0055 0.0055 0.0265
757 1 0.001 2500 0.0005 0.0005 0.0275
758 1 0.001 2500 0.0015 0.0005 0.0275
759 1 0.001 2500 0.0025 0.0005 0.0275
760 1 0.001 2500 0.0035 0.0005 0.0275
761 1 0.001 2500 0.0045 0.0005 0.0275
762 1 0.001 2500 0.0055 0.0005 0.0275
763 1 0.001 2500 0.0005 0.0015 0.0275
764 1 0.001 2500 0.0015 0.0015 0.0275
765 1 0.001 2500 0.0025 0.0015 0.0275
766 1 0.001 2500 0.0035 0.0015 0.0275
767 1 0.001 2500 0.0045 0.0015 0.0275
768 1 0.001 2500 0.0055 0.0015 0.0275
769 1 0.001 2500 0.0005 0.0025 0.0275
770 1 0.001 2500 0.0015 0.0025 0.0275
771 1 0.001 2500 0.0025 0.0025 0.0275
772 1 0.001 2500 0.0035 0.0025 0.0275
773 1 0.001 2500 0.0045 0.0025 0.0275
774 1 0.001 2500 0.0055 0.0025 0.0275
775 1 0.001 2500 0.0005 0.0035 0.0275
776 1 0.001 2500 0.0015 0.0035 0.0275
777 1 0.001 2500 0.0025 0.0035 0.0275
778 1 0.001 2500 0.0035 0.0035 0.0275
779 1 0.001 2500 0.0045 0.0035 0.0275
780 1 0.001 2500 0.0055 0.0035 0.0275
781 1 0.001 2500 0.0005 0.0045 0.0275
782 1 0.001 2500 0.0015 0.0045 0.0275
783 1 0.001 2500 0.0025 0.0045 0.0275
784 1 0.001 2500 0.0035 0.0045 0.0275
785 1 0.001 2500 0.0045 0.0045 0.0275
786 1 0.001 2500 0.0055 0.0045 0.0275
787 1 0.001 2500 0.0005 0.0055 0.0275
788 1 0.001 2500 0.0015 0.0055 0.0275
789 1 0.001 2500 0.0025 0.0055 0.0275