# Probe 0 (0.0015 0.0015 0)
# Probe 1 (0.0015 0.0015 0.002)
# Probe 2 (0.0015 0.0015 0.004)
# Probe 3 (0.0015 0.0015 0.006)
# Probe 4 (0.0015 0.0015 0.008)
# Probe 5 (0.0015 0.0015 0.01)
# Probe 6 (0.0015 0.0015 0.012)
# Probe 7 (0.0015 0.0015 0.014)
# Probe 8 (0.0015 0.0015 0.016)
# Probe 9 (0.0015 0.0015 0.018)
# Probe 10 (0.0015 0.0015 0.02)
# Time        0             1             2             3             4             5             6             7             8             9             10           
50            72074.6       72074.6       72074.6       11884.2       11884.2       2675.82       2675.82       1654.62       1654.62       3485.93       3485.93      
100           113087        113087        113087        25323.8       25323.8       4926.16       4926.16       2123.94       2123.94       4053.48       4053.48      
150           135629        135629        135629        43765.4       43765.4       8877.38       8877.38       2921.7        2921.7        4723.43       4723.43      
200           147851        147851        147851        62115.7       62115.7       15034.8       15034.8       4220.22       4220.22       5490.87       5490.87      
250           156240        156240        156240        77544.1       77544.1       23642.5       23642.5       6285.24       6285.24       6402.87       6402.87      
300           162510        162510        162510        89492         89492         33877.9       33877.9       9408.42       9408.42       7552.13       7552.13      
350           167336        167336        167336        98955.3       98955.3       44592.3       44592.3       13874.8       13874.8       9073.75       9073.75      
400           171295        171295        171295        106957        106957        54951.5       54951.5       19788.6       19788.6       11125.8       11125.8      
450           174714        174714        174714        113987        113987        64545         64545         26929.5       26929.5       13843         13843        
500           177743        177743        177743        120267        120267        73350.7       73350.7       34804.3       34804.3       17265.7       17265.7      
550           180467        180467        180467        125946        125946        81464         81464         42803.9       42803.9       21262.6       21262.6      
600           182937        182937        182937        131107        131107        88892         88892         50391         50391         25527.2       25527.2      
650           185167        185167        185167        135758        135758        95563.3       95563.3       57224.2       57224.2       29692         29692        
700           187151        187151        187151        139873        139873        101409        101409        63152.3       63152.3       33466.4       33466.4      
750           188878        188878        188878        143432        143432        106407        106407        68150.2       68150.2       36699.1       36699.1      
800           190346        190346        190346        146440        146440        110583        110583        72268         72268         39360.8       39360.8      
850           191570        191570        191570        148929        148929        114004        114004        75595.7       75595.7       41493.7       41493.7      
900           192569        192569        192569        150953        150953        116759        116759        78244.6       78244.6       43173.7       43173.7      
950           193373        193373        193373        152573        152573        118948        118948        80328.3       80328.3       44482.1       44482.1      
1000          194010        194010        194010        153853        153853        120667        120667        81952.7       81952.7       45493.5       45493.5      
1050          194511        194511        194511        154855        154855        122006        122006        83210.3       83210.3       46271.3       46271.3      
1100          194900        194900        194900        155632        155632        123042        123042        84178.9       84178.9       46867.3       46867.3      
1150          195200        195200        195200        156232        156232        123839        123839        84921.8       84921.8       47322.8       47322.8      
1200          195432        195432        195432        156693        156693        124451        124451        85490.2       85490.2       47670.2       47670.2      
1250          195609        195609        195609        157046        157046        124918        124918        85923.9       85923.9       47934.8       47934.8      
1300          195745        195745        195745        157316        157316        125275        125275        86254.4       86254.4       48136.1       48136.1      
1350          195848        195848        195848        157522        157522        125547        125547        86506.1       86506.1       48289.4       48289.4      
1400          195927        195927        195927        157678        157678        125753        125753        86696.9       86696.9       48405.3       48405.3      
1450          195987        195987        195987        157797        157797        125910        125910        86842.1       86842.1       48493.6       48493.6      
1500          196032        196032        196032        157887        157887        126029        126029        86952         86952         48560.3       48560.3      
1550          196067        196067        196067        157956        157956        126119        126119        87035.4       87035.4       48611         48611        
1600          196092        196092        196092        158007        158007        126187        126187        87097.6       87097.6       48648.7       48648.7      
1650          196112        196112        196112        158046        158046        126238        126238        87145         87145         48677.6       48677.6      
1700          196127        196127        196127        158075        158075        126277        126277        87181.1       87181.1       48699.5       48699.5      
1750          196138        196138        196138        158097        158097        126306        126306        87208.3       87208.3       48716.1       48716.1      
1800          196146        196146        196146        158114        158114        126328        126328        87228.4       87228.4       48728.3       48728.3      
1850          196153        196153        196153        158126        158126        126345        126345        87243.6       87243.6       48737.6       48737.6      
1900          196158        196158        196158        158137        158137        126358        126358        87256.1       87256.1       48745.1       48745.1      
1950          196161        196161        196161        158143        158143        126367        126367        87264.5       87264.5       48750.4       48750.4      
2000          196163        196163        196163        158148        158148        126374        126374        87270.3       87270.3       48753.8       48753.8      
2050          196166        196166        196166        158153        158153        126380        126380        87276.3       87276.3       48757.5       48757.5      
2100          196167        196167        196167        158156        158156        126384        126384        87279.7       87279.7       48759.6       48759.6      
2150          196168        196168        196168        158158        158158        126386        126386        87282.1       87282.1       48761         48761        
2200          196169        196169        196169        158159        158159        126389        126389        87284.4       87284.4       48762.4       48762.4      
2250          196169        196169        196169        158159        158159        126389        126389        87284.4       87284.4       48762.4       48762.4      
2300          196170        196170        196170        158160        158160        126390        126390        87285.6       87285.6       48763.4       48763.4      
2350          196170        196170        196170        158160        158160        126390        126390        87285.6       87285.6       48763.4       48763.4      
2400          196170        196170        196170        158160        158160        126390        126390        87285.6       87285.6       48763.4       48763.4      
2450          196170        196170        196170        158160        158160        126390        126390        87285.6       87285.6       48763.4       48763.4      
2500          196170        196170        196170        158160        158160        126390        126390        87285.6       87285.6       48763.4       48763.4      
2550          196170        196170        196170        158160        158160        126390        126390        87285.6       87285.6       48763.4       48763.4      
2600          196170        196170        196170        158160        158160        126390        126390        87285.6       87285.6       48763.4       48763.4      
2650          196170        196170        196170        158160        158160        126390        126390        87285.6       87285.6       48763.4       48763.4      
2700          196170        196170        196170        158160        158160        126390        126390        87285.6       87285.6       48763.4       48763.4      
2750          196170        196170        196170        158160        158160        126390        126390        87285.6       87285.6       48763.4       48763.4      
2800          196170        196170        196170        158160        158160        126390        126390        87285.6       87285.6       48763.4       48763.4      
2850          196170        196170        196170        158160        158160        126390        126390        87285.6       87285.6       48763.4       48763.4      
2900          196170        196170        196170        158160        158160        126390        126390        87285.6       87285.6       48763.4       48763.4      
2950          196170        196170        196170        158160        158160        126390        126390        87285.6       87285.6       48763.4       48763.4      
3000          196170        196170        196170        158160        158160        126390        126390        87285.6       87285.6       48763.4       48763.4      
3050          196170        196170        196170        158160        158160        126390        126390        87285.6       87285.6       48763.4       48763.4      
3100          196170        196170        196170        158160        158160        126390        126390        87285.6       87285.6       48763.4       48763.4      
3150          196170        196170        196170        158160        158160        126390        126390        87285.6       87285.6       48763.4       48763.4      
3200          196170        196170        196170        158160        158160        126390        126390        87285.6       87285.6       48763.4       48763.4      
3250          196170        196170        196170        158160        158160        126390        126390        87285.6       87285.6       48763.4       48763.4      
3300          196170        196170        196170        158160        158160        126390        126390        87285.6       87285.6       48763.4       48763.4      
3350          196170        196170        196170        158160        158160        126390        126390        87285.6       87285.6       48763.4       48763.4      
3400          196170        196170        196170        158160        158160        126390        126390        87285.6       87285.6       48763.4       48763.4      
3450          196170        196170        196170        158160        158160        126390        126390        87285.6       87285.6       48763.4       48763.4      
3500          196170        196170        196170        158160        158160        126390        126390        87285.6       87285.6       48763.4       48763.4      
3550          196170        196170        196170        158160        158160        126390        126390        87285.6       87285.6       48763.4       48763.4      
3600          196170        196170        196170        158160        158160        126390        126390        87285.6       87285.6       48763.4       48763.4      
3650          196170        196170        196170        158160        158160        126390        126390        87285.6       87285.6       48763.4       48763.4      
3700          196170        196170        196170        158160        158160        126390        126390        87285.6       87285.6       48763.4       48763.4      
3750          196170        196170        196170        158160        158160        126390        126390        87285.6       87285.6       48763.4       48763.4      
3800          196170        196170        196170        158160        158160        126390        126390        87285.6       87285.6       48763.4       48763.4      
3850          196170        196170        196170        158160        158160        126390        126390        87285.6       87285.6       48763.4       48763.4      
3900          196170        196170        196170        158160        158160        126390        126390        87285.6       87285.6       48763.4       48763.4      
3950          196170        196170        196170        158160        158160        126390        126390        87285.6       87285.6       48763.4       48763.4      
4000          196170        196170        196170        158160        158160        126390        126390        87285.6       87285.6       48763.4       48763.4      
4050          196170        196170        196170        158160        158160        126390        126390        87285.6       87285.6       48763.4       48763.4      
4100          196170        196170        196170        158160        158160        126390        126390        87285.6       87285.6       48763.4       48763.4      
4150          196170        196170        196170        158160        158160        126390        126390        87285.6       87285.6       48763.4       48763.4      
4200          196170        196170        196170        158160        158160        126390        126390        87285.6       87285.6       48763.4       48763.4      
4250          196170        196170        196170        158160        158160        126390        126390        87285.6       87285.6       48763.4       48763.4      
4300          196170        196170        196170        158160        158160        126390        126390        87285.6       87285.6       48763.4       48763.4      
4350          196170        196170        196170        158160        158160        126390        126390        87285.6       87285.6       48763.4       48763.4      
4400          196170        196170        196170        158160        158160        126390        126390        87285.6       87285.6       48763.4       48763.4      
4450          196170        196170        196170        158160        158160        126390        126390        87285.6       87285.6       48763.4       48763.4      
4500          196170        196170        196170        158160        158160        126390        126390        87285.6       87285.6       48763.4       48763.4      
4550          196170        196170        196170        158160        158160        126390        126390        87285.6       87285.6       48763.4       48763.4      
4600          196170        196170        196170        158160        158160        126390        126390        87285.6       87285.6       48763.4       48763.4      
4650          196170        196170        196170        158160        158160        126390        126390        87285.6       87285.6       48763.4       48763.4      
4700          196170        196170        196170        158160        158160        126390        126390        87285.6       87285.6       48763.4       48763.4      
4750          196170        196170        196170        158160        158160        126390        126390        87285.6       87285.6       48763.4       48763.4      
4800          196170        196170        196170        158160        158160        126390        126390        87285.6       87285.6       48763.4       48763.4      
4850          196170        196170        196170        158160        158160        126390        126390        87285.6       87285.6       48763.4       48763.4      
4900          196170        196170        196170        158160        158160        126390        126390        87285.6       87285.6       48763.4       48763.4      
4950          196170        196170        196170        158160        158160        126390        126390        87285.6       87285.6       48763.4       48763.4      
5000          196170        196170        196170        158160        158160        126390        126390        87285.6       87285.6       48763.4       48763.4      
