# Probe 0 (0.0015 0.0015 0)
# Probe 1 (0.0015 0.0015 0.002)
# Probe 2 (0.0015 0.0015 0.004)
# Probe 3 (0.0015 0.0015 0.006)
# Probe 4 (0.0015 0.0015 0.008)
# Probe 5 (0.0015 0.0015 0.01)
# Probe 6 (0.0015 0.0015 0.012)
# Probe 7 (0.0015 0.0015 0.014)
# Probe 8 (0.0015 0.0015 0.016)
# Probe 9 (0.0015 0.0015 0.018)
# Probe 10 (0.0015 0.0015 0.02)
# Time        0             1             2             3             4             5             6             7             8             9             10           
50            0.000675345   0.000675345   0.000675345   0.000668798   0.000668798   0.000656938   0.000656938   0.000659219   0.000659219   0.000664856   0.000664856  
100           0.000675345   0.000675345   0.000675345   0.000668798   0.000668798   0.000656938   0.000656938   0.000659219   0.000659219   0.000664856   0.000664856  
150           0.000675345   0.000675345   0.000675345   0.000668798   0.000668798   0.000656938   0.000656938   0.000659219   0.000659219   0.000664856   0.000664856  
200           0.000675345   0.000675345   0.000675345   0.000668798   0.000668798   0.000656938   0.000656938   0.000659219   0.000659219   0.000664856   0.000664856  
250           0.000675345   0.000675345   0.000675345   0.000668798   0.000668798   0.000656938   0.000656938   0.000659219   0.000659219   0.000664856   0.000664856  
300           0.000675345   0.000675345   0.000675345   0.000668798   0.000668798   0.000656938   0.000656938   0.000659219   0.000659219   0.000664856   0.000664856  
350           0.000675345   0.000675345   0.000675345   0.000668798   0.000668798   0.000656938   0.000656938   0.000659219   0.000659219   0.000664856   0.000664856  
400           0.000675345   0.000675345   0.000675345   0.000668798   0.000668798   0.000656938   0.000656938   0.000659219   0.000659219   0.000664856   0.000664856  
450           0.000675345   0.000675345   0.000675345   0.000668798   0.000668798   0.000656938   0.000656938   0.000659219   0.000659219   0.000664856   0.000664856  
500           0.000675345   0.000675345   0.000675345   0.000668798   0.000668798   0.000656938   0.000656938   0.000659219   0.000659219   0.000664856   0.000664856  
550           0.000675345   0.000675345   0.000675345   0.000668798   0.000668798   0.000656938   0.000656938   0.000659219   0.000659219   0.000664856   0.000664856  
600           0.000675345   0.000675345   0.000675345   0.000668798   0.000668798   0.000656938   0.000656938   0.000659219   0.000659219   0.000664856   0.000664856  
650           0.000675345   0.000675345   0.000675345   0.000668798   0.000668798   0.000656938   0.000656938   0.000659219   0.000659219   0.000664856   0.000664856  
700           0.000675345   0.000675345   0.000675345   0.000668798   0.000668798   0.000656938   0.000656938   0.000659219   0.000659219   0.000664856   0.000664856  
750           0.000675345   0.000675345   0.000675345   0.000668798   0.000668798   0.000656938   0.000656938   0.000659219   0.000659219   0.000664856   0.000664856  
800           0.000675345   0.000675345   0.000675345   0.000668798   0.000668798   0.000656938   0.000656938   0.000659219   0.000659219   0.000664856   0.000664856  
850           0.000675345   0.000675345   0.000675345   0.000668798   0.000668798   0.000656938   0.000656938   0.000659219   0.000659219   0.000664856   0.000664856  
900           0.000675345   0.000675345   0.000675345   0.000668798   0.000668798   0.000656938   0.000656938   0.000659219   0.000659219   0.000664856   0.000664856  
950           0.000675345   0.000675345   0.000675345   0.000668798   0.000668798   0.000656938   0.000656938   0.000659219   0.000659219   0.000664856   0.000664856  
1000          0.000675345   0.000675345   0.000675345   0.000668798   0.000668798   0.000656938   0.000656938   0.000659219   0.000659219   0.000664856   0.000664856  
1050          0.000675345   0.000675345   0.000675345   0.000668798   0.000668798   0.000656938   0.000656938   0.000659219   0.000659219   0.000664856   0.000664856  
1100          0.000675345   0.000675345   0.000675345   0.000668798   0.000668798   0.000656938   0.000656938   0.000659219   0.000659219   0.000664856   0.000664856  
1150          0.000675345   0.000675345   0.000675345   0.000668798   0.000668798   0.000656938   0.000656938   0.000659219   0.000659219   0.000664856   0.000664856  
1200          0.000675345   0.000675345   0.000675345   0.000668798   0.000668798   0.000656938   0.000656938   0.000659219   0.000659219   0.000664856   0.000664856  
1250          0.000675345   0.000675345   0.000675345   0.000668798   0.000668798   0.000656938   0.000656938   0.000659219   0.000659219   0.000664856   0.000664856  
1300          0.000675345   0.000675345   0.000675345   0.000668798   0.000668798   0.000656938   0.000656938   0.000659219   0.000659219   0.000664856   0.000664856  
1350          0.000675345   0.000675345   0.000675345   0.000668798   0.000668798   0.000656938   0.000656938   0.000659219   0.000659219   0.000664856   0.000664856  
1400          0.000675345   0.000675345   0.000675345   0.000668798   0.000668798   0.000656938   0.000656938   0.000659219   0.000659219   0.000664856   0.000664856  
1450          0.000675345   0.000675345   0.000675345   0.000668798   0.000668798   0.000656938   0.000656938   0.000659219   0.000659219   0.000664856   0.000664856  
1500          0.000675345   0.000675345   0.000675345   0.000668798   0.000668798   0.000656938   0.000656938   0.000659219   0.000659219   0.000664856   0.000664856  
1550          0.000675345   0.000675345   0.000675345   0.000668798   0.000668798   0.000656938   0.000656938   0.000659219   0.000659219   0.000664856   0.000664856  
1600          0.000675345   0.000675345   0.000675345   0.000668798   0.000668798   0.000656938   0.000656938   0.000659219   0.000659219   0.000664856   0.000664856  
1650          0.000675345   0.000675345   0.000675345   0.000668798   0.000668798   0.000656938   0.000656938   0.000659219   0.000659219   0.000664856   0.000664856  
1700          0.000675345   0.000675345   0.000675345   0.000668798   0.000668798   0.000656938   0.000656938   0.000659219   0.000659219   0.000664856   0.000664856  
1750          0.000675345   0.000675345   0.000675345   0.000668798   0.000668798   0.000656938   0.000656938   0.000659219   0.000659219   0.000664856   0.000664856  
1800          0.000675345   0.000675345   0.000675345   0.000668798   0.000668798   0.000656938   0.000656938   0.000659219   0.000659219   0.000664856   0.000664856  
1850          0.000675345   0.000675345   0.000675345   0.000668798   0.000668798   0.000656938   0.000656938   0.000659219   0.000659219   0.000664856   0.000664856  
1900          0.000675345   0.000675345   0.000675345   0.000668798   0.000668798   0.000656938   0.000656938   0.000659219   0.000659219   0.000664856   0.000664856  
1950          0.000675345   0.000675345   0.000675345   0.000668798   0.000668798   0.000656938   0.000656938   0.000659219   0.000659219   0.000664856   0.000664856  
2000          0.000675345   0.000675345   0.000675345   0.000668798   0.000668798   0.000656938   0.000656938   0.000659219   0.000659219   0.000664856   0.000664856  
2050          0.000675345   0.000675345   0.000675345   0.000668798   0.000668798   0.000656938   0.000656938   0.000659219   0.000659219   0.000664856   0.000664856  
2100          0.000675345   0.000675345   0.000675345   0.000668798   0.000668798   0.000656938   0.000656938   0.000659219   0.000659219   0.000664856   0.000664856  
2150          0.000675345   0.000675345   0.000675345   0.000668798   0.000668798   0.000656938   0.000656938   0.000659219   0.000659219   0.000664856   0.000664856  
2200          0.000675345   0.000675345   0.000675345   0.000668798   0.000668798   0.000656938   0.000656938   0.000659219   0.000659219   0.000664856   0.000664856  
2250          0.000675345   0.000675345   0.000675345   0.000668798   0.000668798   0.000656938   0.000656938   0.000659219   0.000659219   0.000664856   0.000664856  
2300          0.000675345   0.000675345   0.000675345   0.000668798   0.000668798   0.000656938   0.000656938   0.000659219   0.000659219   0.000664856   0.000664856  
2350          0.000675345   0.000675345   0.000675345   0.000668798   0.000668798   0.000656938   0.000656938   0.000659219   0.000659219   0.000664856   0.000664856  
2400          0.000675345   0.000675345   0.000675345   0.000668798   0.000668798   0.000656938   0.000656938   0.000659219   0.000659219   0.000664856   0.000664856  
2450          0.000675345   0.000675345   0.000675345   0.000668798   0.000668798   0.000656938   0.000656938   0.000659219   0.000659219   0.000664856   0.000664856  
2500          0.000675345   0.000675345   0.000675345   0.000668798   0.000668798   0.000656938   0.000656938   0.000659219   0.000659219   0.000664856   0.000664856  
2550          0.000675345   0.000675345   0.000675345   0.000668798   0.000668798   0.000656938   0.000656938   0.000659219   0.000659219   0.000664856   0.000664856  
2600          0.000675345   0.000675345   0.000675345   0.000668798   0.000668798   0.000656938   0.000656938   0.000659219   0.000659219   0.000664856   0.000664856  
2650          0.000675345   0.000675345   0.000675345   0.000668798   0.000668798   0.000656938   0.000656938   0.000659219   0.000659219   0.000664856   0.000664856  
2700          0.000675345   0.000675345   0.000675345   0.000668798   0.000668798   0.000656938   0.000656938   0.000659219   0.000659219   0.000664856   0.000664856  
2750          0.000675345   0.000675345   0.000675345   0.000668798   0.000668798   0.000656938   0.000656938   0.000659219   0.000659219   0.000664856   0.000664856  
2800          0.000675345   0.000675345   0.000675345   0.000668798   0.000668798   0.000656938   0.000656938   0.000659219   0.000659219   0.000664856   0.000664856  
2850          0.000675345   0.000675345   0.000675345   0.000668798   0.000668798   0.000656938   0.000656938   0.000659219   0.000659219   0.000664856   0.000664856  
2900          0.000675345   0.000675345   0.000675345   0.000668798   0.000668798   0.000656938   0.000656938   0.000659219   0.000659219   0.000664856   0.000664856  
2950          0.000675345   0.000675345   0.000675345   0.000668798   0.000668798   0.000656938   0.000656938   0.000659219   0.000659219   0.000664856   0.000664856  
3000          0.000675345   0.000675345   0.000675345   0.000668798   0.000668798   0.000656938   0.000656938   0.000659219   0.000659219   0.000664856   0.000664856  
3050          0.000675345   0.000675345   0.000675345   0.000668798   0.000668798   0.000656938   0.000656938   0.000659219   0.000659219   0.000664856   0.000664856  
3100          0.000675345   0.000675345   0.000675345   0.000668798   0.000668798   0.000656938   0.000656938   0.000659219   0.000659219   0.000664856   0.000664856  
3150          0.000675345   0.000675345   0.000675345   0.000668798   0.000668798   0.000656938   0.000656938   0.000659219   0.000659219   0.000664856   0.000664856  
3200          0.000675345   0.000675345   0.000675345   0.000668798   0.000668798   0.000656938   0.000656938   0.000659219   0.000659219   0.000664856   0.000664856  
3250          0.000675345   0.000675345   0.000675345   0.000668798   0.000668798   0.000656938   0.000656938   0.000659219   0.000659219   0.000664856   0.000664856  
3300          0.000675345   0.000675345   0.000675345   0.000668798   0.000668798   0.000656938   0.000656938   0.000659219   0.000659219   0.000664856   0.000664856  
3350          0.000675345   0.000675345   0.000675345   0.000668798   0.000668798   0.000656938   0.000656938   0.000659219   0.000659219   0.000664856   0.000664856  
3400          0.000675345   0.000675345   0.000675345   0.000668798   0.000668798   0.000656938   0.000656938   0.000659219   0.000659219   0.000664856   0.000664856  
3450          0.000675345   0.000675345   0.000675345   0.000668798   0.000668798   0.000656938   0.000656938   0.000659219   0.000659219   0.000664856   0.000664856  
3500          0.000675345   0.000675345   0.000675345   0.000668798   0.000668798   0.000656938   0.000656938   0.000659219   0.000659219   0.000664856   0.000664856  
3550          0.000675345   0.000675345   0.000675345   0.000668798   0.000668798   0.000656938   0.000656938   0.000659219   0.000659219   0.000664856   0.000664856  
3600          0.000675345   0.000675345   0.000675345   0.000668798   0.000668798   0.000656938   0.000656938   0.000659219   0.000659219   0.000664856   0.000664856  
3650          0.000675345   0.000675345   0.000675345   0.000668798   0.000668798   0.000656938   0.000656938   0.000659219   0.000659219   0.000664856   0.000664856  
3700          0.000675345   0.000675345   0.000675345   0.000668798   0.000668798   0.000656938   0.000656938   0.000659219   0.000659219   0.000664856   0.000664856  
3750          0.000675345   0.000675345   0.000675345   0.000668798   0.000668798   0.000656938   0.000656938   0.000659219   0.000659219   0.000664856   0.000664856  
3800          0.000675345   0.000675345   0.000675345   0.000668798   0.000668798   0.000656938   0.000656938   0.000659219   0.000659219   0.000664856   0.000664856  
3850          0.000675345   0.000675345   0.000675345   0.000668798   0.000668798   0.000656938   0.000656938   0.000659219   0.000659219   0.000664856   0.000664856  
3900          0.000675345   0.000675345   0.000675345   0.000668798   0.000668798   0.000656938   0.000656938   0.000659219   0.000659219   0.000664856   0.000664856  
3950          0.000675345   0.000675345   0.000675345   0.000668798   0.000668798   0.000656938   0.000656938   0.000659219   0.000659219   0.000664856   0.000664856  
4000          0.000675345   0.000675345   0.000675345   0.000668798   0.000668798   0.000656938   0.000656938   0.000659219   0.000659219   0.000664856   0.000664856  
4050          0.000675345   0.000675345   0.000675345   0.000668798   0.000668798   0.000656938   0.000656938   0.000659219   0.000659219   0.000664856   0.000664856  
4100          0.000675345   0.000675345   0.000675345   0.000668798   0.000668798   0.000656938   0.000656938   0.000659219   0.000659219   0.000664856   0.000664856  
4150          0.000675345   0.000675345   0.000675345   0.000668798   0.000668798   0.000656938   0.000656938   0.000659219   0.000659219   0.000664856   0.000664856  
4200          0.000675345   0.000675345   0.000675345   0.000668798   0.000668798   0.000656938   0.000656938   0.000659219   0.000659219   0.000664856   0.000664856  
4250          0.000675345   0.000675345   0.000675345   0.000668798   0.000668798   0.000656938   0.000656938   0.000659219   0.000659219   0.000664856   0.000664856  
4300          0.000675345   0.000675345   0.000675345   0.000668798   0.000668798   0.000656938   0.000656938   0.000659219   0.000659219   0.000664856   0.000664856  
4350          0.000675345   0.000675345   0.000675345   0.000668798   0.000668798   0.000656938   0.000656938   0.000659219   0.000659219   0.000664856   0.000664856  
4400          0.000675345   0.000675345   0.000675345   0.000668798   0.000668798   0.000656938   0.000656938   0.000659219   0.000659219   0.000664856   0.000664856  
4450          0.000675345   0.000675345   0.000675345   0.000668798   0.000668798   0.000656938   0.000656938   0.000659219   0.000659219   0.000664856   0.000664856  
4500          0.000675345   0.000675345   0.000675345   0.000668798   0.000668798   0.000656938   0.000656938   0.000659219   0.000659219   0.000664856   0.000664856  
4550          0.000675345   0.000675345   0.000675345   0.000668798   0.000668798   0.000656938   0.000656938   0.000659219   0.000659219   0.000664856   0.000664856  
4600          0.000675345   0.000675345   0.000675345   0.000668798   0.000668798   0.000656938   0.000656938   0.000659219   0.000659219   0.000664856   0.000664856  
4650          0.000675345   0.000675345   0.000675345   0.000668798   0.000668798   0.000656938   0.000656938   0.000659219   0.000659219   0.000664856   0.000664856  
4700          0.000675345   0.000675345   0.000675345   0.000668798   0.000668798   0.000656938   0.000656938   0.000659219   0.000659219   0.000664856   0.000664856  
4750          0.000675345   0.000675345   0.000675345   0.000668798   0.000668798   0.000656938   0.000656938   0.000659219   0.000659219   0.000664856   0.000664856  
4800          0.000675345   0.000675345   0.000675345   0.000668798   0.000668798   0.000656938   0.000656938   0.000659219   0.000659219   0.000664856   0.000664856  
4850          0.000675345   0.000675345   0.000675345   0.000668798   0.000668798   0.000656938   0.000656938   0.000659219   0.000659219   0.000664856   0.000664856  
4900          0.000675345   0.000675345   0.000675345   0.000668798   0.000668798   0.000656938   0.000656938   0.000659219   0.000659219   0.000664856   0.000664856  
4950          0.000675345   0.000675345   0.000675345   0.000668798   0.000668798   0.000656938   0.000656938   0.000659219   0.000659219   0.000664856   0.000664856  
5000          0.000675345   0.000675345   0.000675345   0.000668798   0.000668798   0.000656938   0.000656938   0.000659219   0.000659219   0.000664856   0.000664856  
