# Probe 0 (0.0015 0.0015 0)
# Probe 1 (0.0015 0.0015 0.002)
# Probe 2 (0.0015 0.0015 0.004)
# Probe 3 (0.0015 0.0015 0.006)
# Probe 4 (0.0015 0.0015 0.008)
# Probe 5 (0.0015 0.0015 0.01)
# Probe 6 (0.0015 0.0015 0.012)
# Probe 7 (0.0015 0.0015 0.014)
# Probe 8 (0.0015 0.0015 0.016)
# Probe 9 (0.0015 0.0015 0.018)
# Probe 10 (0.0015 0.0015 0.02)
# Time        0             1             2             3             4             5             6             7             8             9             10           
50            (835708 108882 -3.06148e+07) (835708 108882 -3.06148e+07) (835708 108882 -3.06148e+07) (24177 -45354.2 -8.67485e+06) (24177 -45354.2 -8.67485e+06) (7181.37 -1389.97 -1.27869e+06) (7181.37 -1389.97 -1.27869e+06) (9179.95 -9625.96 101264) (9179.95 -9625.96 101264) (3525.93 20953.1 1.83417e+06) (3525.93 20953.1 1.83417e+06)
100           (1.48425e+06 289394 -2.79414e+07) (1.48425e+06 289394 -2.79414e+07) (1.48425e+06 289394 -2.79414e+07) (43368.4 -210144 -1.35201e+07) (43368.4 -210144 -1.35201e+07) (4052.19 -4892.28 -2.89998e+06) (4052.19 -4892.28 -2.89998e+06) (10066.3 -11235.9 -109085) (10066.3 -11235.9 -109085) (7147.8 33715.1 1.76122e+06) (7147.8 33715.1 1.76122e+06)
150           (1.65555e+06 259487 -2.50902e+07) (1.65555e+06 259487 -2.50902e+07) (1.65555e+06 259487 -2.50902e+07) (84780.2 -431825 -1.58439e+07) (84780.2 -431825 -1.58439e+07) (-9162.96 -11415.4 -5.10547e+06) (-9162.96 -11415.4 -5.10547e+06) (11387.4 -14469.9 -519245) (11387.4 -14469.9 -519245) (10052.2 47418.6 1.64465e+06) (10052.2 47418.6 1.64465e+06)
200           (1.7747e+06 251968 -2.25004e+07) (1.7747e+06 251968 -2.25004e+07) (1.7747e+06 251968 -2.25004e+07) (241520 -578085 -1.6602e+07) (241520 -578085 -1.6602e+07) (-27141.8 -13927.2 -7.23694e+06) (-27141.8 -13927.2 -7.23694e+06) (13670.8 -21134.4 -1.19299e+06) (13670.8 -21134.4 -1.19299e+06) (11519.2 60568 1.46302e+06) (11519.2 60568 1.46302e+06)
250           (1.85194e+06 253679 -2.03686e+07) (1.85194e+06 253679 -2.03686e+07) (1.85194e+06 253679 -2.03686e+07) (387375 -673974 -1.65747e+07) (387375 -673974 -1.65747e+07) (-17748 -8992.26 -8.90735e+06) (-17748 -8992.26 -8.90735e+06) (18610.7 -35286.8 -2.15496e+06) (18610.7 -35286.8 -2.15496e+06) (11633.5 73444.4 1.18194e+06) (11633.5 73444.4 1.18194e+06)
300           (1.90693e+06 255174 -1.87232e+07) (1.90693e+06 255174 -1.87232e+07) (1.90693e+06 255174 -1.87232e+07) (486672 -744406 -1.6079e+07) (486672 -744406 -1.6079e+07) (38492.6 -12694.3 -1.00104e+07) (38492.6 -12694.3 -1.00104e+07) (31403.8 -63779.3 -3.29072e+06) (31403.8 -63779.3 -3.29072e+06) (10712.3 87794.6 762628) (10712.3 87794.6 762628)
350           (1.9484e+06 256523 -1.74234e+07) (1.9484e+06 256523 -1.74234e+07) (1.9484e+06 256523 -1.74234e+07) (560257 -795661 -1.5343e+07) (560257 -795661 -1.5343e+07) (130000 -19111.7 -1.06351e+07) (130000 -19111.7 -1.06351e+07) (62447.1 -110989 -4.43982e+06) (62447.1 -110989 -4.43982e+06) (8875.05 105894 166045) (8875.05 105894 166045)
400           (1.9819e+06 257804 -1.63273e+07) (1.9819e+06 257804 -1.63273e+07) (1.9819e+06 257804 -1.63273e+07) (621567 -835901 -1.45429e+07) (621567 -835901 -1.45429e+07) (233621 -21288.3 -1.08961e+07) (233621 -21288.3 -1.08961e+07) (118882 -172068 -5.4782e+06) (118882 -172068 -5.4782e+06) (5958.26 130151 -624825) (5958.26 130151 -624825)
450           (2.01061e+06 258984 -1.53657e+07) (2.01061e+06 258984 -1.53657e+07) (2.01061e+06 258984 -1.53657e+07) (675137 -870076 -1.37711e+07) (675137 -870076 -1.37711e+07) (330222 -23277 -1.08822e+07) (330222 -23277 -1.08822e+07) (194264 -237624 -6.33775e+06) (194264 -237624 -6.33775e+06) (1671.73 162009 -1.5858e+06) (1671.73 162009 -1.5858e+06)
500           (2.03594e+06 260057 -1.45074e+07) (2.03594e+06 260057 -1.45074e+07) (2.03594e+06 260057 -1.45074e+07) (722663 -900190 -1.3049e+07) (722663 -900190 -1.3049e+07) (413343 -26105.7 -1.06828e+07) (413343 -26105.7 -1.06828e+07) (275203 -303776 -7.01063e+06) (275203 -303776 -7.01063e+06) (-3942.2 200776 -2.65628e+06) (-3942.2 200776 -2.65628e+06)
550           (2.05866e+06 261039 -1.37315e+07) (2.05866e+06 261039 -1.37315e+07) (2.05866e+06 261039 -1.37315e+07) (765378 -927189 -1.23753e+07) (765378 -927189 -1.23753e+07) (485228 -29134.1 -1.03928e+07) (485228 -29134.1 -1.03928e+07) (352981 -369467 -7.52518e+06) (352981 -369467 -7.52518e+06) (-10274.1 243895 -3.7568e+06) (-10274.1 243895 -3.7568e+06)
600           (2.07923e+06 261937 -1.30265e+07) (2.07923e+06 261937 -1.30265e+07) (2.07923e+06 261937 -1.30265e+07) (804075 -951631 -1.17556e+07) (804075 -951631 -1.17556e+07) (548830 -31997.9 -1.00895e+07) (548830 -31997.9 -1.00895e+07) (423717 -431938 -7.92059e+06) (423717 -431938 -7.92059e+06) (-16336.2 288113 -4.8125e+06) (-16336.2 288113 -4.8125e+06)
650           (2.09782e+06 262752 -1.23911e+07) (2.09782e+06 262752 -1.23911e+07) (2.09782e+06 262752 -1.23911e+07) (838943 -973710 -1.12005e+07) (838943 -973710 -1.12005e+07) (605201 -34572 -9.81676e+06) (605201 -34572 -9.81676e+06) (485930 -488410 -8.23392e+06) (485930 -488410 -8.23392e+06) (-21315.4 330332 -5.77145e+06) (-21315.4 330332 -5.77145e+06)
700           (2.11441e+06 263475 -1.18287e+07) (2.11441e+06 263475 -1.18287e+07) (2.11441e+06 263475 -1.18287e+07) (869831 -993376 -1.07177e+07) (869831 -993376 -1.07177e+07) (654374 -36818.8 -9.59011e+06) (654374 -36818.8 -9.59011e+06) (539374 -537564 -8.49286e+06) (539374 -537564 -8.49286e+06) (-25051.3 368254 -6.60744e+06) (-25051.3 368254 -6.60744e+06)
750           (2.12889e+06 264104 -1.1342e+07) (2.12889e+06 264104 -1.1342e+07) (2.12889e+06 264104 -1.1342e+07) (896590 -1.01053e+06 -1.03089e+07) (896590 -1.01053e+06 -1.03089e+07) (696339 -38731.7 -9.41024e+06) (696339 -38731.7 -9.41024e+06) (584330 -579159 -8.71347e+06) (584330 -579159 -8.71347e+06) (-27844.7 400718 -7.31352e+06) (-27844.7 400718 -7.31352e+06)
800           (2.14125e+06 264639 -1.09305e+07) (2.14125e+06 264639 -1.09305e+07) (2.14125e+06 264639 -1.09305e+07) (919241 -1.02514e+06 -9.97037e+06) (919241 -1.02514e+06 -9.97037e+06) (731398 -40309.4 -9.27146e+06) (731398 -40309.4 -9.27146e+06) (621399 -613557 -8.90282e+06) (621399 -613557 -8.90282e+06) (-30009.2 427577 -7.89522e+06) (-30009.2 427577 -7.89522e+06)
850           (2.15157e+06 265074 -1.05896e+07) (2.15157e+06 265074 -1.05896e+07) (2.15157e+06 265074 -1.05896e+07) (938034 -1.03736e+06 -9.69568e+06) (938034 -1.03736e+06 -9.69568e+06) (760112 -41619.2 -9.16672e+06) (760112 -41619.2 -9.16672e+06) (651440 -641465 -9.06381e+06) (651440 -641465 -9.06381e+06) (-31764.3 449237 -8.36486e+06) (-31764.3 449237 -8.36486e+06)
900           (2.16002e+06 265439 -1.03124e+07) (2.16002e+06 265439 -1.03124e+07) (2.16002e+06 265439 -1.03124e+07) (953306 -1.04732e+06 -9.47625e+06) (953306 -1.04732e+06 -9.47625e+06) (783200 -42659 -9.08859e+06) (783200 -42659 -9.08859e+06) (675348 -663690 -9.19821e+06) (675348 -663690 -9.19821e+06) (-33179.3 466364 -8.73824e+06) (-33179.3 466364 -8.73824e+06)
950           (2.16683e+06 265731 -1.00905e+07) (2.16683e+06 265731 -1.00905e+07) (2.16683e+06 265731 -1.00905e+07) (965539 -1.05534e+06 -9.30315e+06) (965539 -1.05534e+06 -9.30315e+06) (801533 -43481.5 -9.03059e+06) (801533 -43481.5 -9.03059e+06) (694180 -681200 -9.30822e+06) (694180 -681200 -9.30822e+06) (-34310.4 479768 -9.03163e+06) (-34310.4 479768 -9.03163e+06)
1000          (2.17224e+06 265964 -9.91506e+06) (2.17224e+06 265964 -9.91506e+06) (2.17224e+06 265964 -9.91506e+06) (975213 -1.06171e+06 -9.16792e+06) (975213 -1.06171e+06 -9.16792e+06) (815931 -44125.6 -8.98755e+06) (815931 -44125.6 -8.98755e+06) (708875 -694866 -9.39671e+06) (708875 -694866 -9.39671e+06) (-35203.1 490170 -9.26013e+06) (-35203.1 490170 -9.26013e+06)
1050          (2.17649e+06 266146 -9.77776e+06) (2.17649e+06 266146 -9.77776e+06) (2.17649e+06 266146 -9.77776e+06) (982785 -1.06671e+06 -9.06306e+06) (982785 -1.06671e+06 -9.06306e+06) (827141 -44626 -8.95554e+06) (827141 -44626 -8.95554e+06) (720260 -705455 -9.46685e+06) (720260 -705455 -9.46685e+06) (-35900.2 498195 -9.4369e+06) (-35900.2 498195 -9.4369e+06)
1100          (2.1798e+06 266288 -9.67113e+06) (2.1798e+06 266288 -9.67113e+06) (2.1798e+06 266288 -9.67113e+06) (988667 -1.0706e+06 -8.98222e+06) (988667 -1.0706e+06 -8.98222e+06) (835811 -45012.5 -8.93167e+06) (835811 -45012.5 -8.93167e+06) (729034 -713616 -9.52184e+06) (729034 -713616 -9.52184e+06) (-36440.1 504357 -9.57297e+06) (-36440.1 504357 -9.57297e+06)
1150          (2.18236e+06 266395 -9.58884e+06) (2.18236e+06 266395 -9.58884e+06) (2.18236e+06 266395 -9.58884e+06) (993212 -1.0736e+06 -8.92014e+06) (993212 -1.0736e+06 -8.92014e+06) (842477 -45322.7 -8.9138e+06) (842477 -45322.7 -8.9138e+06) (735770 -719882 -9.56456e+06) (735770 -719882 -9.56456e+06) (-36867.5 509063 -9.6773e+06) (-36867.5 509063 -9.6773e+06)
1200          (2.18433e+06 266480 -9.5256e+06) (2.18433e+06 266480 -9.5256e+06) (2.18433e+06 266480 -9.5256e+06) (996700 -1.07592e+06 -8.87264e+06) (996700 -1.07592e+06 -8.87264e+06) (847595 -45547.3 -8.9004e+06) (847595 -45547.3 -8.9004e+06) (740922 -724674 -9.59756e+06) (740922 -724674 -9.59756e+06) (-37183.5 512669 -9.75709e+06) (-37183.5 512669 -9.75709e+06)
1250          (2.18584e+06 266545 -9.47716e+06) (2.18584e+06 266545 -9.47716e+06) (2.18584e+06 266545 -9.47716e+06) (999371 -1.07769e+06 -8.83638e+06) (999371 -1.07769e+06 -8.83638e+06) (851507 -45718.8 -8.89032e+06) (851507 -45718.8 -8.89032e+06) (744854 -728332 -9.62292e+06) (744854 -728332 -9.62292e+06) (-37425 515417 -9.81797e+06) (-37425 515417 -9.81797e+06)
1300          (2.187e+06 266595 -9.44016e+06) (2.187e+06 266595 -9.44016e+06) (2.187e+06 266595 -9.44016e+06) (1.00141e+06 -1.07905e+06 -8.80874e+06) (1.00141e+06 -1.07905e+06 -8.80874e+06) (854491 -45849.6 -8.88273e+06) (854491 -45849.6 -8.88273e+06) (747850 -731119 -9.64234e+06) (747850 -731119 -9.64234e+06) (-37609.2 517509 -9.86433e+06) (-37609.2 517509 -9.86433e+06)
1350          (2.18789e+06 266638 -9.41194e+06) (2.18789e+06 266638 -9.41194e+06) (2.18789e+06 266638 -9.41194e+06) (1.00297e+06 -1.08009e+06 -8.78769e+06) (1.00297e+06 -1.08009e+06 -8.78769e+06) (856786 -45927.6 -8.87698e+06) (856786 -45927.6 -8.87698e+06) (750136 -733245 -9.65719e+06) (750136 -733245 -9.65719e+06) (-37731 519128 -9.89966e+06) (-37731 519128 -9.89966e+06)
1400          (2.18855e+06 266665 -9.3905e+06) (2.18855e+06 266665 -9.3905e+06) (2.18855e+06 266665 -9.3905e+06) (1.00414e+06 -1.08086e+06 -8.77173e+06) (1.00414e+06 -1.08086e+06 -8.77173e+06) (858482 -46018.2 -8.87267e+06) (858482 -46018.2 -8.87267e+06) (751848 -734837 -9.66848e+06) (751848 -734837 -9.66848e+06) (-37852.6 520302 -9.92642e+06) (-37852.6 520302 -9.92642e+06)
1450          (2.18906e+06 266685 -9.37417e+06) (2.18906e+06 266685 -9.37417e+06) (2.18906e+06 266685 -9.37417e+06) (1.00505e+06 -1.08147e+06 -8.75957e+06) (1.00505e+06 -1.08147e+06 -8.75957e+06) (859812 -46077.4 -8.86939e+06) (859812 -46077.4 -8.86939e+06) (753181 -736078 -9.67708e+06) (753181 -736078 -9.67708e+06) (-37933.5 521234 -9.9468e+06) (-37933.5 521234 -9.9468e+06)
1500          (2.18945e+06 266702 -9.36181e+06) (2.18945e+06 266702 -9.36181e+06) (2.18945e+06 266702 -9.36181e+06) (1.00573e+06 -1.08192e+06 -8.75038e+06) (1.00573e+06 -1.08192e+06 -8.75038e+06) (860799 -46119 -8.86692e+06) (860799 -46119 -8.86692e+06) (754171 -736996 -9.68361e+06) (754171 -736996 -9.68361e+06) (-37994.1 521923 -9.96221e+06) (-37994.1 521923 -9.96221e+06)
1550          (2.18974e+06 266714 -9.35242e+06) (2.18974e+06 266714 -9.35242e+06) (2.18974e+06 266714 -9.35242e+06) (1.00625e+06 -1.08227e+06 -8.7434e+06) (1.00625e+06 -1.08227e+06 -8.7434e+06) (861557 -46153.6 -8.86504e+06) (861557 -46153.6 -8.86504e+06) (754931 -737704 -9.68856e+06) (754931 -737704 -9.68856e+06) (-38042.3 522452 -9.97391e+06) (-38042.3 522452 -9.97391e+06)
1600          (2.18996e+06 266724 -9.34542e+06) (2.18996e+06 266724 -9.34542e+06) (2.18996e+06 266724 -9.34542e+06) (1.00664e+06 -1.08252e+06 -8.7382e+06) (1.00664e+06 -1.08252e+06 -8.7382e+06) (862121 -46180.4 -8.86365e+06) (862121 -46180.4 -8.86365e+06) (755495 -738230 -9.69225e+06) (755495 -738230 -9.69225e+06) (-38076.5 522844 -9.98264e+06) (-38076.5 522844 -9.98264e+06)
1650          (2.19013e+06 266731 -9.34011e+06) (2.19013e+06 266731 -9.34011e+06) (2.19013e+06 266731 -9.34011e+06) (1.00693e+06 -1.08272e+06 -8.73423e+06) (1.00693e+06 -1.08272e+06 -8.73423e+06) (862548 -46196.8 -8.86256e+06) (862548 -46196.8 -8.86256e+06) (755924 -738625 -9.69504e+06) (755924 -738625 -9.69504e+06) (-38102.8 523142 -9.98929e+06) (-38102.8 523142 -9.98929e+06)
1700          (2.19026e+06 266736 -9.33604e+06) (2.19026e+06 266736 -9.33604e+06) (2.19026e+06 266736 -9.33604e+06) (1.00715e+06 -1.08287e+06 -8.73121e+06) (1.00715e+06 -1.08287e+06 -8.73121e+06) (862879 -46214 -8.86176e+06) (862879 -46214 -8.86176e+06) (756255 -738937 -9.69719e+06) (756255 -738937 -9.69719e+06) (-38123.9 523373 -9.99435e+06) (-38123.9 523373 -9.99435e+06)
1750          (2.19035e+06 266741 -9.33299e+06) (2.19035e+06 266741 -9.33299e+06) (2.19035e+06 266741 -9.33299e+06) (1.00732e+06 -1.08298e+06 -8.72894e+06) (1.00732e+06 -1.08298e+06 -8.72894e+06) (863125 -46223.9 -8.86114e+06) (863125 -46223.9 -8.86114e+06) (756501 -739165 -9.69879e+06) (756501 -739165 -9.69879e+06) (-38139 523544 -9.99817e+06) (-38139 523544 -9.99817e+06)
1800          (2.19042e+06 266743 -9.33073e+06) (2.19042e+06 266743 -9.33073e+06) (2.19042e+06 266743 -9.33073e+06) (1.00745e+06 -1.08306e+06 -8.72725e+06) (1.00745e+06 -1.08306e+06 -8.72725e+06) (863307 -46233.6 -8.86069e+06) (863307 -46233.6 -8.86069e+06) (756684 -739336 -9.69999e+06) (756684 -739336 -9.69999e+06) (-38151.1 523672 -1.0001e+07) (-38151.1 523672 -1.0001e+07)
1850          (2.19048e+06 266745 -9.32901e+06) (2.19048e+06 266745 -9.32901e+06) (2.19048e+06 266745 -9.32901e+06) (1.00754e+06 -1.08313e+06 -8.72598e+06) (1.00754e+06 -1.08313e+06 -8.72598e+06) (863447 -46240 -8.86034e+06) (863447 -46240 -8.86034e+06) (756825 -739467 -9.70089e+06) (756825 -739467 -9.70089e+06) (-38159.9 523770 -1.00031e+07) (-38159.9 523770 -1.00031e+07)
1900          (2.19052e+06 266747 -9.32762e+06) (2.19052e+06 266747 -9.32762e+06) (2.19052e+06 266747 -9.32762e+06) (1.00762e+06 -1.08318e+06 -8.72494e+06) (1.00762e+06 -1.08318e+06 -8.72494e+06) (863559 -46244.1 -8.86006e+06) (863559 -46244.1 -8.86006e+06) (756937 -739571 -9.70163e+06) (756937 -739571 -9.70163e+06) (-38166.7 523848 -1.00049e+07) (-38166.7 523848 -1.00049e+07)
1950          (2.19055e+06 266748 -9.32669e+06) (2.19055e+06 266748 -9.32669e+06) (2.19055e+06 266748 -9.32669e+06) (1.00767e+06 -1.08321e+06 -8.72424e+06) (1.00767e+06 -1.08321e+06 -8.72424e+06) (863631 -46245.1 -8.85985e+06) (863631 -46245.1 -8.85985e+06) (757010 -739635 -9.7021e+06) (757010 -739635 -9.7021e+06) (-38170.5 523899 -1.00061e+07) (-38170.5 523899 -1.00061e+07)
2000          (2.19057e+06 266749 -9.32602e+06) (2.19057e+06 266749 -9.32602e+06) (2.19057e+06 266749 -9.32602e+06) (1.00771e+06 -1.08324e+06 -8.72374e+06) (1.00771e+06 -1.08324e+06 -8.72374e+06) (863687 -46249.5 -8.85973e+06) (863687 -46249.5 -8.85973e+06) (757066 -739691 -9.70247e+06) (757066 -739691 -9.70247e+06) (-38174.7 523937 -1.00069e+07) (-38174.7 523937 -1.00069e+07)
2050          (2.19059e+06 266750 -9.32538e+06) (2.19059e+06 266750 -9.32538e+06) (2.19059e+06 266750 -9.32538e+06) (1.00774e+06 -1.08326e+06 -8.72326e+06) (1.00774e+06 -1.08326e+06 -8.72326e+06) (863737 -46249.4 -8.85958e+06) (863737 -46249.4 -8.85958e+06) (757116 -739733 -9.70278e+06) (757116 -739733 -9.70278e+06) (-38177 523972 -1.00077e+07) (-38177 523972 -1.00077e+07)
2100          (2.1906e+06 266750 -9.32498e+06) (2.1906e+06 266750 -9.32498e+06) (2.1906e+06 266750 -9.32498e+06) (1.00777e+06 -1.08328e+06 -8.72296e+06) (1.00777e+06 -1.08328e+06 -8.72296e+06) (863773 -46252.8 -8.85951e+06) (863773 -46252.8 -8.85951e+06) (757151 -739770 -9.70301e+06) (757151 -739770 -9.70301e+06) (-38179.9 523997 -1.00082e+07) (-38179.9 523997 -1.00082e+07)
2150          (2.19061e+06 266750 -9.32472e+06) (2.19061e+06 266750 -9.32472e+06) (2.19061e+06 266750 -9.32472e+06) (1.00778e+06 -1.08329e+06 -8.72277e+06) (1.00778e+06 -1.08329e+06 -8.72277e+06) (863794 -46253.6 -8.85945e+06) (863794 -46253.6 -8.85945e+06) (757172 -739789 -9.70314e+06) (757172 -739789 -9.70314e+06) (-38181.2 524012 -1.00085e+07) (-38181.2 524012 -1.00085e+07)
2200          (2.19062e+06 266751 -9.32447e+06) (2.19062e+06 266751 -9.32447e+06) (2.19062e+06 266751 -9.32447e+06) (1.00779e+06 -1.08329e+06 -8.72257e+06) (1.00779e+06 -1.08329e+06 -8.72257e+06) (863815 -46254.3 -8.85939e+06) (863815 -46254.3 -8.85939e+06) (757194 -739808 -9.70326e+06) (757194 -739808 -9.70326e+06) (-38182.4 524027 -1.00088e+07) (-38182.4 524027 -1.00088e+07)
2250          (2.19062e+06 266751 -9.32447e+06) (2.19062e+06 266751 -9.32447e+06) (2.19062e+06 266751 -9.32447e+06) (1.00779e+06 -1.08329e+06 -8.72257e+06) (1.00779e+06 -1.08329e+06 -8.72257e+06) (863815 -46254.3 -8.85939e+06) (863815 -46254.3 -8.85939e+06) (757194 -739808 -9.70326e+06) (757194 -739808 -9.70326e+06) (-38182.4 524027 -1.00088e+07) (-38182.4 524027 -1.00088e+07)
2300          (2.19062e+06 266751 -9.32436e+06) (2.19062e+06 266751 -9.32436e+06) (2.19062e+06 266751 -9.32436e+06) (1.0078e+06 -1.0833e+06 -8.72248e+06) (1.0078e+06 -1.0833e+06 -8.72248e+06) (863823 -46252.6 -8.85934e+06) (863823 -46252.6 -8.85934e+06) (757202 -739811 -9.70329e+06) (757202 -739811 -9.70329e+06) (-38182.2 524032 -1.0009e+07) (-38182.2 524032 -1.0009e+07)
2350          (2.19062e+06 266751 -9.32436e+06) (2.19062e+06 266751 -9.32436e+06) (2.19062e+06 266751 -9.32436e+06) (1.0078e+06 -1.0833e+06 -8.72248e+06) (1.0078e+06 -1.0833e+06 -8.72248e+06) (863823 -46252.6 -8.85934e+06) (863823 -46252.6 -8.85934e+06) (757202 -739811 -9.70329e+06) (757202 -739811 -9.70329e+06) (-38182.2 524032 -1.0009e+07) (-38182.2 524032 -1.0009e+07)
2400          (2.19062e+06 266751 -9.32436e+06) (2.19062e+06 266751 -9.32436e+06) (2.19062e+06 266751 -9.32436e+06) (1.0078e+06 -1.0833e+06 -8.72248e+06) (1.0078e+06 -1.0833e+06 -8.72248e+06) (863823 -46252.6 -8.85934e+06) (863823 -46252.6 -8.85934e+06) (757202 -739811 -9.70329e+06) (757202 -739811 -9.70329e+06) (-38182.2 524032 -1.0009e+07) (-38182.2 524032 -1.0009e+07)
2450          (2.19062e+06 266751 -9.32436e+06) (2.19062e+06 266751 -9.32436e+06) (2.19062e+06 266751 -9.32436e+06) (1.0078e+06 -1.0833e+06 -8.72248e+06) (1.0078e+06 -1.0833e+06 -8.72248e+06) (863823 -46252.6 -8.85934e+06) (863823 -46252.6 -8.85934e+06) (757202 -739811 -9.70329e+06) (757202 -739811 -9.70329e+06) (-38182.2 524032 -1.0009e+07) (-38182.2 524032 -1.0009e+07)
2500          (2.19062e+06 266751 -9.32436e+06) (2.19062e+06 266751 -9.32436e+06) (2.19062e+06 266751 -9.32436e+06) (1.0078e+06 -1.0833e+06 -8.72248e+06) (1.0078e+06 -1.0833e+06 -8.72248e+06) (863823 -46252.6 -8.85934e+06) (863823 -46252.6 -8.85934e+06) (757202 -739811 -9.70329e+06) (757202 -739811 -9.70329e+06) (-38182.2 524032 -1.0009e+07) (-38182.2 524032 -1.0009e+07)
2550          (2.19062e+06 266751 -9.32436e+06) (2.19062e+06 266751 -9.32436e+06) (2.19062e+06 266751 -9.32436e+06) (1.0078e+06 -1.0833e+06 -8.72248e+06) (1.0078e+06 -1.0833e+06 -8.72248e+06) (863823 -46252.6 -8.85934e+06) (863823 -46252.6 -8.85934e+06) (757202 -739811 -9.70329e+06) (757202 -739811 -9.70329e+06) (-38182.2 524032 -1.0009e+07) (-38182.2 524032 -1.0009e+07)
2600          (2.19062e+06 266751 -9.32436e+06) (2.19062e+06 266751 -9.32436e+06) (2.19062e+06 266751 -9.32436e+06) (1.0078e+06 -1.0833e+06 -8.72248e+06) (1.0078e+06 -1.0833e+06 -8.72248e+06) (863823 -46252.6 -8.85934e+06) (863823 -46252.6 -8.85934e+06) (757202 -739811 -9.70329e+06) (757202 -739811 -9.70329e+06) (-38182.2 524032 -1.0009e+07) (-38182.2 524032 -1.0009e+07)
2650          (2.19062e+06 266751 -9.32436e+06) (2.19062e+06 266751 -9.32436e+06) (2.19062e+06 266751 -9.32436e+06) (1.0078e+06 -1.0833e+06 -8.72248e+06) (1.0078e+06 -1.0833e+06 -8.72248e+06) (863823 -46252.6 -8.85934e+06) (863823 -46252.6 -8.85934e+06) (757202 -739811 -9.70329e+06) (757202 -739811 -9.70329e+06) (-38182.2 524032 -1.0009e+07) (-38182.2 524032 -1.0009e+07)
2700          (2.19062e+06 266751 -9.32436e+06) (2.19062e+06 266751 -9.32436e+06) (2.19062e+06 266751 -9.32436e+06) (1.0078e+06 -1.0833e+06 -8.72248e+06) (1.0078e+06 -1.0833e+06 -8.72248e+06) (863823 -46252.6 -8.85934e+06) (863823 -46252.6 -8.85934e+06) (757202 -739811 -9.70329e+06) (757202 -739811 -9.70329e+06) (-38182.2 524032 -1.0009e+07) (-38182.2 524032 -1.0009e+07)
2750          (2.19062e+06 266751 -9.32436e+06) (2.19062e+06 266751 -9.32436e+06) (2.19062e+06 266751 -9.32436e+06) (1.0078e+06 -1.0833e+06 -8.72248e+06) (1.0078e+06 -1.0833e+06 -8.72248e+06) (863823 -46252.6 -8.85934e+06) (863823 -46252.6 -8.85934e+06) (757202 -739811 -9.70329e+06) (757202 -739811 -9.70329e+06) (-38182.2 524032 -1.0009e+07) (-38182.2 524032 -1.0009e+07)
2800          (2.19062e+06 266751 -9.32436e+06) (2.19062e+06 266751 -9.32436e+06) (2.19062e+06 266751 -9.32436e+06) (1.0078e+06 -1.0833e+06 -8.72248e+06) (1.0078e+06 -1.0833e+06 -8.72248e+06) (863823 -46252.6 -8.85934e+06) (863823 -46252.6 -8.85934e+06) (757202 -739811 -9.70329e+06) (757202 -739811 -9.70329e+06) (-38182.2 524032 -1.0009e+07) (-38182.2 524032 -1.0009e+07)
2850          (2.19062e+06 266751 -9.32436e+06) (2.19062e+06 266751 -9.32436e+06) (2.19062e+06 266751 -9.32436e+06) (1.0078e+06 -1.0833e+06 -8.72248e+06) (1.0078e+06 -1.0833e+06 -8.72248e+06) (863823 -46252.6 -8.85934e+06) (863823 -46252.6 -8.85934e+06) (757202 -739811 -9.70329e+06) (757202 -739811 -9.70329e+06) (-38182.2 524032 -1.0009e+07) (-38182.2 524032 -1.0009e+07)
2900          (2.19062e+06 266751 -9.32436e+06) (2.19062e+06 266751 -9.32436e+06) (2.19062e+06 266751 -9.32436e+06) (1.0078e+06 -1.0833e+06 -8.72248e+06) (1.0078e+06 -1.0833e+06 -8.72248e+06) (863823 -46252.6 -8.85934e+06) (863823 -46252.6 -8.85934e+06) (757202 -739811 -9.70329e+06) (757202 -739811 -9.70329e+06) (-38182.2 524032 -1.0009e+07) (-38182.2 524032 -1.0009e+07)
2950          (2.19062e+06 266751 -9.32436e+06) (2.19062e+06 266751 -9.32436e+06) (2.19062e+06 266751 -9.32436e+06) (1.0078e+06 -1.0833e+06 -8.72248e+06) (1.0078e+06 -1.0833e+06 -8.72248e+06) (863823 -46252.6 -8.85934e+06) (863823 -46252.6 -8.85934e+06) (757202 -739811 -9.70329e+06) (757202 -739811 -9.70329e+06) (-38182.2 524032 -1.0009e+07) (-38182.2 524032 -1.0009e+07)
3000          (2.19062e+06 266751 -9.32436e+06) (2.19062e+06 266751 -9.32436e+06) (2.19062e+06 266751 -9.32436e+06) (1.0078e+06 -1.0833e+06 -8.72248e+06) (1.0078e+06 -1.0833e+06 -8.72248e+06) (863823 -46252.6 -8.85934e+06) (863823 -46252.6 -8.85934e+06) (757202 -739811 -9.70329e+06) (757202 -739811 -9.70329e+06) (-38182.2 524032 -1.0009e+07) (-38182.2 524032 -1.0009e+07)
3050          (2.19062e+06 266751 -9.32436e+06) (2.19062e+06 266751 -9.32436e+06) (2.19062e+06 266751 -9.32436e+06) (1.0078e+06 -1.0833e+06 -8.72248e+06) (1.0078e+06 -1.0833e+06 -8.72248e+06) (863823 -46252.6 -8.85934e+06) (863823 -46252.6 -8.85934e+06) (757202 -739811 -9.70329e+06) (757202 -739811 -9.70329e+06) (-38182.2 524032 -1.0009e+07) (-38182.2 524032 -1.0009e+07)
3100          (2.19062e+06 266751 -9.32436e+06) (2.19062e+06 266751 -9.32436e+06) (2.19062e+06 266751 -9.32436e+06) (1.0078e+06 -1.0833e+06 -8.72248e+06) (1.0078e+06 -1.0833e+06 -8.72248e+06) (863823 -46252.6 -8.85934e+06) (863823 -46252.6 -8.85934e+06) (757202 -739811 -9.70329e+06) (757202 -739811 -9.70329e+06) (-38182.2 524032 -1.0009e+07) (-38182.2 524032 -1.0009e+07)
3150          (2.19062e+06 266751 -9.32436e+06) (2.19062e+06 266751 -9.32436e+06) (2.19062e+06 266751 -9.32436e+06) (1.0078e+06 -1.0833e+06 -8.72248e+06) (1.0078e+06 -1.0833e+06 -8.72248e+06) (863823 -46252.6 -8.85934e+06) (863823 -46252.6 -8.85934e+06) (757202 -739811 -9.70329e+06) (757202 -739811 -9.70329e+06) (-38182.2 524032 -1.0009e+07) (-38182.2 524032 -1.0009e+07)
3200          (2.19062e+06 266751 -9.32436e+06) (2.19062e+06 266751 -9.32436e+06) (2.19062e+06 266751 -9.32436e+06) (1.0078e+06 -1.0833e+06 -8.72248e+06) (1.0078e+06 -1.0833e+06 -8.72248e+06) (863823 -46252.6 -8.85934e+06) (863823 -46252.6 -8.85934e+06) (757202 -739811 -9.70329e+06) (757202 -739811 -9.70329e+06) (-38182.2 524032 -1.0009e+07) (-38182.2 524032 -1.0009e+07)
3250          (2.19062e+06 266751 -9.32436e+06) (2.19062e+06 266751 -9.32436e+06) (2.19062e+06 266751 -9.32436e+06) (1.0078e+06 -1.0833e+06 -8.72248e+06) (1.0078e+06 -1.0833e+06 -8.72248e+06) (863823 -46252.6 -8.85934e+06) (863823 -46252.6 -8.85934e+06) (757202 -739811 -9.70329e+06) (757202 -739811 -9.70329e+06) (-38182.2 524032 -1.0009e+07) (-38182.2 524032 -1.0009e+07)
3300          (2.19062e+06 266751 -9.32436e+06) (2.19062e+06 266751 -9.32436e+06) (2.19062e+06 266751 -9.32436e+06) (1.0078e+06 -1.0833e+06 -8.72248e+06) (1.0078e+06 -1.0833e+06 -8.72248e+06) (863823 -46252.6 -8.85934e+06) (863823 -46252.6 -8.85934e+06) (757202 -739811 -9.70329e+06) (757202 -739811 -9.70329e+06) (-38182.2 524032 -1.0009e+07) (-38182.2 524032 -1.0009e+07)
3350          (2.19062e+06 266751 -9.32436e+06) (2.19062e+06 266751 -9.32436e+06) (2.19062e+06 266751 -9.32436e+06) (1.0078e+06 -1.0833e+06 -8.72248e+06) (1.0078e+06 -1.0833e+06 -8.72248e+06) (863823 -46252.6 -8.85934e+06) (863823 -46252.6 -8.85934e+06) (757202 -739811 -9.70329e+06) (757202 -739811 -9.70329e+06) (-38182.2 524032 -1.0009e+07) (-38182.2 524032 -1.0009e+07)
3400          (2.19062e+06 266751 -9.32436e+06) (2.19062e+06 266751 -9.32436e+06) (2.19062e+06 266751 -9.32436e+06) (1.0078e+06 -1.0833e+06 -8.72248e+06) (1.0078e+06 -1.0833e+06 -8.72248e+06) (863823 -46252.6 -8.85934e+06) (863823 -46252.6 -8.85934e+06) (757202 -739811 -9.70329e+06) (757202 -739811 -9.70329e+06) (-38182.2 524032 -1.0009e+07) (-38182.2 524032 -1.0009e+07)
3450          (2.19062e+06 266751 -9.32436e+06) (2.19062e+06 266751 -9.32436e+06) (2.19062e+06 266751 -9.32436e+06) (1.0078e+06 -1.0833e+06 -8.72248e+06) (1.0078e+06 -1.0833e+06 -8.72248e+06) (863823 -46252.6 -8.85934e+06) (863823 -46252.6 -8.85934e+06) (757202 -739811 -9.70329e+06) (757202 -739811 -9.70329e+06) (-38182.2 524032 -1.0009e+07) (-38182.2 524032 -1.0009e+07)
3500          (2.19062e+06 266751 -9.32436e+06) (2.19062e+06 266751 -9.32436e+06) (2.19062e+06 266751 -9.32436e+06) (1.0078e+06 -1.0833e+06 -8.72248e+06) (1.0078e+06 -1.0833e+06 -8.72248e+06) (863823 -46252.6 -8.85934e+06) (863823 -46252.6 -8.85934e+06) (757202 -739811 -9.70329e+06) (757202 -739811 -9.70329e+06) (-38182.2 524032 -1.0009e+07) (-38182.2 524032 -1.0009e+07)
3550          (2.19062e+06 266751 -9.32436e+06) (2.19062e+06 266751 -9.32436e+06) (2.19062e+06 266751 -9.32436e+06) (1.0078e+06 -1.0833e+06 -8.72248e+06) (1.0078e+06 -1.0833e+06 -8.72248e+06) (863823 -46252.6 -8.85934e+06) (863823 -46252.6 -8.85934e+06) (757202 -739811 -9.70329e+06) (757202 -739811 -9.70329e+06) (-38182.2 524032 -1.0009e+07) (-38182.2 524032 -1.0009e+07)
3600          (2.19062e+06 266751 -9.32436e+06) (2.19062e+06 266751 -9.32436e+06) (2.19062e+06 266751 -9.32436e+06) (1.0078e+06 -1.0833e+06 -8.72248e+06) (1.0078e+06 -1.0833e+06 -8.72248e+06) (863823 -46252.6 -8.85934e+06) (863823 -46252.6 -8.85934e+06) (757202 -739811 -9.70329e+06) (757202 -739811 -9.70329e+06) (-38182.2 524032 -1.0009e+07) (-38182.2 524032 -1.0009e+07)
3650          (2.19062e+06 266751 -9.32436e+06) (2.19062e+06 266751 -9.32436e+06) (2.19062e+06 266751 -9.32436e+06) (1.0078e+06 -1.0833e+06 -8.72248e+06) (1.0078e+06 -1.0833e+06 -8.72248e+06) (863823 -46252.6 -8.85934e+06) (863823 -46252.6 -8.85934e+06) (757202 -739811 -9.70329e+06) (757202 -739811 -9.70329e+06) (-38182.2 524032 -1.0009e+07) (-38182.2 524032 -1.0009e+07)
3700          (2.19062e+06 266751 -9.32436e+06) (2.19062e+06 266751 -9.32436e+06) (2.19062e+06 266751 -9.32436e+06) (1.0078e+06 -1.0833e+06 -8.72248e+06) (1.0078e+06 -1.0833e+06 -8.72248e+06) (863823 -46252.6 -8.85934e+06) (863823 -46252.6 -8.85934e+06) (757202 -739811 -9.70329e+06) (757202 -739811 -9.70329e+06) (-38182.2 524032 -1.0009e+07) (-38182.2 524032 -1.0009e+07)
3750          (2.19062e+06 266751 -9.32436e+06) (2.19062e+06 266751 -9.32436e+06) (2.19062e+06 266751 -9.32436e+06) (1.0078e+06 -1.0833e+06 -8.72248e+06) (1.0078e+06 -1.0833e+06 -8.72248e+06) (863823 -46252.6 -8.85934e+06) (863823 -46252.6 -8.85934e+06) (757202 -739811 -9.70329e+06) (757202 -739811 -9.70329e+06) (-38182.2 524032 -1.0009e+07) (-38182.2 524032 -1.0009e+07)
3800          (2.19062e+06 266751 -9.32436e+06) (2.19062e+06 266751 -9.32436e+06) (2.19062e+06 266751 -9.32436e+06) (1.0078e+06 -1.0833e+06 -8.72248e+06) (1.0078e+06 -1.0833e+06 -8.72248e+06) (863823 -46252.6 -8.85934e+06) (863823 -46252.6 -8.85934e+06) (757202 -739811 -9.70329e+06) (757202 -739811 -9.70329e+06) (-38182.2 524032 -1.0009e+07) (-38182.2 524032 -1.0009e+07)
3850          (2.19062e+06 266751 -9.32436e+06) (2.19062e+06 266751 -9.32436e+06) (2.19062e+06 266751 -9.32436e+06) (1.0078e+06 -1.0833e+06 -8.72248e+06) (1.0078e+06 -1.0833e+06 -8.72248e+06) (863823 -46252.6 -8.85934e+06) (863823 -46252.6 -8.85934e+06) (757202 -739811 -9.70329e+06) (757202 -739811 -9.70329e+06) (-38182.2 524032 -1.0009e+07) (-38182.2 524032 -1.0009e+07)
3900          (2.19062e+06 266751 -9.32436e+06) (2.19062e+06 266751 -9.32436e+06) (2.19062e+06 266751 -9.32436e+06) (1.0078e+06 -1.0833e+06 -8.72248e+06) (1.0078e+06 -1.0833e+06 -8.72248e+06) (863823 -46252.6 -8.85934e+06) (863823 -46252.6 -8.85934e+06) (757202 -739811 -9.70329e+06) (757202 -739811 -9.70329e+06) (-38182.2 524032 -1.0009e+07) (-38182.2 524032 -1.0009e+07)
3950          (2.19062e+06 266751 -9.32436e+06) (2.19062e+06 266751 -9.32436e+06) (2.19062e+06 266751 -9.32436e+06) (1.0078e+06 -1.0833e+06 -8.72248e+06) (1.0078e+06 -1.0833e+06 -8.72248e+06) (863823 -46252.6 -8.85934e+06) (863823 -46252.6 -8.85934e+06) (757202 -739811 -9.70329e+06) (757202 -739811 -9.70329e+06) (-38182.2 524032 -1.0009e+07) (-38182.2 524032 -1.0009e+07)