# Probe 0 (0.0015 0.0015 0)
# Probe 1 (0.0015 0.0015 0.002)
# Probe 2 (0.0015 0.0015 0.004)
# Probe 3 (0.0015 0.0015 0.006)
# Probe 4 (0.0015 0.0015 0.008)
# Probe 5 (0.0015 0.0015 0.01)
# Probe 6 (0.0015 0.0015 0.012)
# Probe 7 (0.0015 0.0015 0.014)
# Probe 8 (0.0015 0.0015 0.016)
# Probe 9 (0.0015 0.0015 0.018)
# Probe 10 (0.0015 0.0015 0.02)
# Time        0             1             2             3             4             5             6             7             8             9             10           
50            (-563.051 -74.1487 20626.3) (-563.051 -74.1487 20626.3) (-563.051 -74.1487 20626.3) (-16.0841 30.3539 5837.33) (-16.0841 30.3539 5837.33) (-4.73571 0.913831 853.965) (-4.73571 0.913831 853.965) (-6.04108 6.35192 -68.3368) (-6.04108 6.35192 -68.3368) (-2.36262 -13.9958 -1218.17) (-2.36262 -13.9958 -1218.17)
100           (-999.845 -196.987 18798.3) (-999.845 -196.987 18798.3) (-999.845 -196.987 18798.3) (-28.6771 140.582 9083.83) (-28.6771 140.582 9083.83) (-2.67293 3.21605 1936.15) (-2.67293 3.21605 1936.15) (-6.62491 7.41482 69.752) (-6.62491 7.41482 69.752) (-4.78837 -22.5158 -1169.6) (-4.78837 -22.5158 -1169.6)
150           (-1115.37 -176.823 16869.4) (-1115.37 -176.823 16869.4) (-1115.37 -176.823 16869.4) (-55.988 288.926 10619.8) (-55.988 288.926 10619.8) (6.03221 7.50392 3407.4) (6.03221 7.50392 3407.4) (-7.49339 9.54917 339.328) (-7.49339 9.54917 339.328) (-6.73396 -31.6676 -1092.18) (-6.73396 -31.6676 -1092.18)
200           (-1195.8 -171.798 15125.3) (-1195.8 -171.798 15125.3) (-1195.8 -171.798 15125.3) (-160.332 386.911 11103.8) (-160.332 386.911 11103.8) (17.8497 9.15365 4827.1) (17.8497 9.15365 4827.1) (-8.9923 13.9459 782.461) (-8.9923 13.9459 782.461) (-7.71738 -40.4533 -971.803) (-7.71738 -40.4533 -971.803)
250           (-1247.96 -173.012 13691.4) (-1247.96 -173.012 13691.4) (-1247.96 -173.012 13691.4) (-257.474 451.182 11069.6) (-257.474 451.182 11069.6) (11.5972 5.90645 5936.44) (11.5972 5.90645 5936.44) (-12.2329 23.2798 1415.56) (-12.2329 23.2798 1415.56) (-7.79532 -49.0582 -785.74) (-7.79532 -49.0582 -785.74)
300           (-1285.1 -174.066 12584.9) (-1285.1 -174.066 12584.9) (-1285.1 -174.066 12584.9) (-323.608 498.388 10730.9) (-323.608 498.388 10730.9) (-25.5248 8.33758 6665.67) (-25.5248 8.33758 6665.67) (-20.6313 42.0704 2163.64) (-20.6313 42.0704 2163.64) (-7.18007 -58.6462 -508.346) (-7.18007 -58.6462 -508.346)
350           (-1313.1 -175.012 11710.9) (-1313.1 -175.012 11710.9) (-1313.1 -175.012 11710.9) (-372.621 532.748 10236.7) (-372.621 532.748 10236.7) (-85.8571 12.5557 7075.93) (-85.8571 12.5557 7075.93) (-41.032 73.2079 2921.44) (-41.032 73.2079 2921.44) (-5.95189 -70.735 -113.78) (-5.95189 -70.735 -113.78)
400           (-1335.73 -175.906 10973.9) (-1335.73 -175.906 10973.9) (-1335.73 -175.906 10973.9) (-413.462 559.729 9701.82) (-413.462 559.729 9701.82) (-154.137 13.9874 7245.17) (-154.137 13.9874 7245.17) (-78.1416 113.499 3607.41) (-78.1416 113.499 3607.41) (-4.00138 -86.9323 409.314) (-4.00138 -86.9323 409.314)
450           (-1355.12 -176.727 10327.5) (-1355.12 -176.727 10327.5) (-1355.12 -176.727 10327.5) (-449.147 582.647 9186.48) (-449.147 582.647 9186.48) (-217.782 15.2962 7232.97) (-217.782 15.2962 7232.97) (-127.721 156.745 4176.46) (-127.721 156.745 4176.46) (-1.13449 -108.202 1045.11) (-1.13449 -108.202 1045.11)
500           (-1372.23 -177.474 9750.46) (-1372.23 -177.474 9750.46) (-1372.23 -177.474 9750.46) (-480.807 602.842 8704.63) (-480.807 602.842 8704.63) (-272.555 17.1574 7098.5) (-272.555 17.1574 7098.5) (-180.958 200.382 4622.9) (-180.958 200.382 4622.9) (2.6203 -134.086 1753.68) (2.6203 -134.086 1753.68)
550           (-1387.57 -178.157 9228.87) (-1387.57 -178.157 9228.87) (-1387.57 -178.157 9228.87) (-509.262 620.949 8255.27) (-509.262 620.949 8255.27) (-319.935 19.1498 6904.4) (-319.935 19.1498 6904.4) (-232.118 243.718 4964.9) (-232.118 243.718 4964.9) (6.85504 -162.88 2482.55) (6.85504 -162.88 2482.55)
600           (-1401.47 -178.782 8754.99) (-1401.47 -178.782 8754.99) (-1401.47 -178.782 8754.99) (-535.041 637.34 7841.93) (-535.041 637.34 7841.93) (-361.862 21.034 6701.77) (-361.862 21.034 6701.77) (-278.652 284.933 5227.95) (-278.652 284.933 5227.95) (10.9086 -192.415 3182.1) (10.9086 -192.415 3182.1)
650           (-1414.03 -179.349 8327.85) (-1414.03 -179.349 8327.85) (-1414.03 -179.349 8327.85) (-558.269 652.148 7471.7) (-558.269 652.148 7471.7) (-399.025 22.7275 6519.53) (-399.025 22.7275 6519.53) (-319.58 322.192 5436.42) (-319.58 322.192 5436.42) (14.2372 -220.621 3817.78) (14.2372 -220.621 3817.78)
700           (-1425.23 -179.852 7949.78) (-1425.23 -179.852 7949.78) (-1425.23 -179.852 7949.78) (-578.846 665.336 7149.64) (-578.846 665.336 7149.64) (-431.442 24.2057 6368.04) (-431.442 24.2057 6368.04) (-354.741 354.624 5608.66) (-354.741 354.624 5608.66) (16.7336 -245.958 4372.08) (16.7336 -245.958 4372.08)
750           (-1435.01 -180.289 7622.59) (-1435.01 -180.289 7622.59) (-1435.01 -180.289 7622.59) (-596.671 676.838 6876.85) (-596.671 676.838 6876.85) (-459.107 25.4641 6247.74) (-459.107 25.4641 6247.74) (-384.318 382.068 5755.34) (-384.318 382.068 5755.34) (18.5997 -267.652 4840.28) (18.5997 -267.652 4840.28)
800           (-1443.36 -180.661 7345.93) (-1443.36 -180.661 7345.93) (-1443.36 -180.661 7345.93) (-611.76 686.64 6650.94) (-611.76 686.64 6650.94) (-482.22 26.5021 6154.85) (-482.22 26.5021 6154.85) (-408.706 404.763 5881.17) (-408.706 404.763 5881.17) (20.0454 -285.601 5226) (20.0454 -285.601 5226)
850           (-1450.33 -180.964 7116.77) (-1450.33 -180.964 7116.77) (-1450.33 -180.964 7116.77) (-624.279 694.83 6467.57) (-624.279 694.83 6467.57) (-501.15 27.3637 6084.7) (-501.15 27.3637 6084.7) (-428.469 423.176 5988.11) (-428.469 423.176 5988.11) (21.2176 -300.075 5537.4) (21.2176 -300.075 5537.4)
900           (-1456.04 -181.218 6930.4) (-1456.04 -181.218 6930.4) (-1456.04 -181.218 6930.4) (-634.452 701.514 6321.06) (-634.452 701.514 6321.06) (-516.37 28.0478 6032.32) (-516.37 28.0478 6032.32) (-444.198 437.84 6077.36) (-444.198 437.84 6077.36) (22.1628 -311.52 5784.96) (22.1628 -311.52 5784.96)
950           (-1460.64 -181.421 6781.19) (-1460.64 -181.421 6781.19) (-1460.64 -181.421 6781.19) (-642.601 706.892 6205.47) (-642.601 706.892 6205.47) (-528.456 28.5888 5993.4) (-528.456 28.5888 5993.4) (-456.586 449.393 6150.41) (-456.586 449.393 6150.41) (22.9183 -320.477 5979.48) (22.9183 -320.477 5979.48)
1000          (-1464.29 -181.583 6663.23) (-1464.29 -181.583 6663.23) (-1464.29 -181.583 6663.23) (-649.045 711.16 6115.15) (-649.045 711.16 6115.15) (-537.947 29.0125 5964.5) (-537.947 29.0125 5964.5) (-466.254 458.409 6209.14) (-466.254 458.409 6209.14) (23.5147 -327.428 6130.96) (23.5147 -327.428 6130.96)
1050          (-1467.16 -181.71 6570.91) (-1467.16 -181.71 6570.91) (-1467.16 -181.71 6570.91) (-654.089 714.51 6045.11) (-654.089 714.51 6045.11) (-545.337 29.3417 5942.99) (-545.337 29.3417 5942.99) (-473.744 465.395 6255.69) (-473.744 465.395 6255.69) (23.9804 -332.79 6248.15) (23.9804 -332.79 6248.15)
1100          (-1469.4 -181.809 6499.22) (-1469.4 -181.809 6499.22) (-1469.4 -181.809 6499.22) (-658.007 717.119 5991.11) (-658.007 717.119 5991.11) (-551.053 29.596 5926.95) (-551.053 29.596 5926.95) (-479.516 470.779 6292.18) (-479.516 470.779 6292.18) (24.3411 -336.908 6338.35) (24.3411 -336.908 6338.35)
1150          (-1471.13 -181.883 6443.89) (-1471.13 -181.883 6443.89) (-1471.13 -181.883 6443.89) (-661.035 719.135 5949.64) (-661.035 719.135 5949.64) (-555.447 29.8 5914.93) (-555.447 29.8 5914.93) (-483.947 474.914 6320.54) (-483.947 474.914 6320.54) (24.6267 -340.052 6407.52) (24.6267 -340.052 6407.52)
1200          (-1472.46 -181.942 6401.36) (-1472.46 -181.942 6401.36) (-1472.46 -181.942 6401.36) (-663.358 720.687 5917.91) (-663.358 720.687 5917.91) (-558.821 29.9478 5905.92) (-558.821 29.9478 5905.92) (-487.336 478.075 6342.44) (-487.336 478.075 6342.44) (24.8378 -342.461 6460.41) (24.8378 -342.461 6460.41)
1250          (-1473.48 -181.988 6368.8) (-1473.48 -181.988 6368.8) (-1473.48 -181.988 6368.8) (-665.138 721.877 5893.68) (-665.138 721.877 5893.68) (-561.4 30.0606 5899.14) (-561.4 30.0606 5899.14) (-489.923 480.488 6359.26) (-489.923 480.488 6359.26) (24.9991 -344.298 6500.76) (24.9991 -344.298 6500.76)
1300          (-1474.26 -182.022 6343.92) (-1474.26 -182.022 6343.92) (-1474.26 -182.022 6343.92) (-666.497 722.786 5875.22) (-666.497 722.786 5875.22) (-563.367 30.1466 5894.03) (-563.367 30.1466 5894.03) (-491.894 482.327 6372.15) (-491.894 482.327 6372.15) (25.1222 -345.696 6531.5) (25.1222 -345.696 6531.5)
1350          (-1474.86 -182.052 6324.94) (-1474.86 -182.052 6324.94) (-1474.86 -182.052 6324.94) (-667.533 723.483 5861.15) (-667.533 723.483 5861.15) (-564.88 30.198 5890.16) (-564.88 30.198 5890.16) (-493.398 483.73 6382) (-493.398 483.73 6382) (25.2035 -346.778 6554.92) (25.2035 -346.778 6554.92)
1400          (-1475.3 -182.071 6310.53) (-1475.3 -182.071 6310.53) (-1475.3 -182.071 6310.53) (-668.316 724.002 5850.49) (-668.316 724.002 5850.49) (-565.998 30.2576 5887.26) (-565.998 30.2576 5887.26) (-494.524 484.78 6389.49) (-494.524 484.78 6389.49) (25.2848 -347.562 6572.66) (25.2848 -347.562 6572.66)
1450          (-1475.65 -182.085 6299.55) (-1475.65 -182.085 6299.55) (-1475.65 -182.085 6299.55) (-668.922 724.41 5842.37) (-668.922 724.41 5842.37) (-566.875 30.2965 5885.05) (-566.875 30.2965 5885.05) (-495.401 485.6 6395.2) (-495.401 485.6 6395.2) (25.3389 -348.184 6586.17) (25.3389 -348.184 6586.17)
1500          (-1475.91 -182.097 6291.24) (-1475.91 -182.097 6291.24) (-1475.91 -182.097 6291.24) (-669.373 724.711 5836.22) (-669.373 724.711 5836.22) (-567.526 30.3239 5883.39) (-567.526 30.3239 5883.39) (-496.052 486.205 6399.53) (-496.052 486.205 6399.53) (25.3793 -348.645 6596.39) (25.3793 -348.645 6596.39)
1550          (-1476.11 -182.105 6284.93) (-1476.11 -182.105 6284.93) (-1476.11 -182.105 6284.93) (-669.72 724.944 5831.56) (-669.72 724.944 5831.56) (-568.025 30.3466 5882.13) (-568.025 30.3466 5882.13) (-496.552 486.672 6402.81) (-496.552 486.672 6402.81) (25.4116 -348.998 6604.14) (25.4116 -348.998 6604.14)
1600          (-1476.26 -182.112 6280.22) (-1476.26 -182.112 6280.22) (-1476.26 -182.112 6280.22) (-669.976 725.117 5828.09) (-669.976 725.117 5828.09) (-568.397 30.3643 5881.19) (-568.397 30.3643 5881.19) (-496.923 487.019 6405.26) (-496.923 487.019 6405.26) (25.4344 -349.26 6609.92) (25.4344 -349.26 6609.92)
1650          (-1476.37 -182.117 6276.65) (-1476.37 -182.117 6276.65) (-1476.37 -182.117 6276.65) (-670.171 725.246 5825.44) (-670.171 725.246 5825.44) (-568.679 30.375 5880.45) (-568.679 30.375 5880.45) (-497.205 487.28 6407.11) (-497.205 487.28 6407.11) (25.452 -349.46 6614.34) (25.452 -349.46 6614.34)
1700          (-1476.46 -182.121 6273.91) (-1476.46 -182.121 6273.91) (-1476.46 -182.121 6273.91) (-670.322 725.348 5823.42) (-670.322 725.348 5823.42) (-568.897 30.3863 5879.91) (-568.897 30.3863 5879.91) (-497.423 487.485 6408.54) (-497.423 487.485 6408.54) (25.4661 -349.614 6617.69) (25.4661 -349.614 6617.69)
1750          (-1476.52 -182.124 6271.86) (-1476.52 -182.124 6271.86) (-1476.52 -182.124 6271.86) (-670.434 725.423 5821.9) (-670.434 725.423 5821.9) (-569.059 30.3929 5879.5) (-569.059 30.3929 5879.5) (-497.585 487.636 6409.6) (-497.585 487.636 6409.6) (25.4762 -349.728 6620.22) (25.4762 -349.728 6620.22)
1800          (-1476.57 -182.125 6270.34) (-1476.57 -182.125 6270.34) (-1476.57 -182.125 6270.34) (-670.518 725.479 5820.77) (-670.518 725.479 5820.77) (-569.179 30.3992 5879.19) (-569.179 30.3992 5879.19) (-497.706 487.749 6410.4) (-497.706 487.749 6410.4) (25.4842 -349.813 6622.09) (25.4842 -349.813 6622.09)
1850          (-1476.61 -182.127 6269.19) (-1476.61 -182.127 6269.19) (-1476.61 -182.127 6269.19) (-670.582 725.522 5819.92) (-670.582 725.522 5819.92) (-569.271 30.4034 5878.96) (-569.271 30.4034 5878.96) (-497.798 487.835 6411) (-497.798 487.835 6411) (25.4901 -349.879 6623.51) (25.4901 -349.879 6623.51)
1900          (-1476.64 -182.128 6268.25) (-1476.64 -182.128 6268.25) (-1476.64 -182.128 6268.25) (-670.633 725.556 5819.22) (-670.633 725.556 5819.22) (-569.345 30.4062 5878.77) (-569.345 30.4062 5878.77) (-497.872 487.904 6411.48) (-497.872 487.904 6411.48) (25.4946 -349.931 6624.66) (25.4946 -349.931 6624.66)
1950          (-1476.65 -182.129 6267.62) (-1476.65 -182.129 6267.62) (-1476.65 -182.129 6267.62) (-670.665 725.578 5818.76) (-670.665 725.578 5818.76) (-569.393 30.4068 5878.63) (-569.393 30.4068 5878.63) (-497.92 487.946 6411.8) (-497.92 487.946 6411.8) (25.4972 -349.965 6625.45) (25.4972 -349.965 6625.45)
2000          (-1476.67 -182.129 6267.18) (-1476.67 -182.129 6267.18) (-1476.67 -182.129 6267.18) (-670.691 725.595 5818.43) (-670.691 725.595 5818.43) (-569.43 30.4097 5878.55) (-569.43 30.4097 5878.55) (-497.957 487.983 6412.04) (-497.957 487.983 6412.04) (25.5 -349.991 6625.99) (25.5 -349.991 6625.99)
2050          (-1476.68 -182.13 6266.74) (-1476.68 -182.13 6266.74) (-1476.68 -182.13 6266.74) (-670.713 725.609 5818.1) (-670.713 725.609 5818.1) (-569.463 30.4097 5878.45) (-569.463 30.4097 5878.45) (-497.99 488.01 6412.25) (-497.99 488.01 6412.25) (25.5016 -350.014 6626.54) (25.5016 -350.014 6626.54)
2100          (-1476.69 -182.13 6266.47) (-1476.69 -182.13 6266.47) (-1476.69 -182.13 6266.47) (-670.729 725.621 5817.9) (-670.729 725.621 5817.9) (-569.486 30.4119 5878.4) (-569.486 30.4119 5878.4) (-498.013 488.035 6412.4) (-498.013 488.035 6412.4) (25.5035 -350.031 6626.87) (25.5035 -350.031 6626.87)
2150          (-1476.7 -182.13 6266.3) (-1476.7 -182.13 6266.3) (-1476.7 -182.13 6266.3) (-670.739 725.627 5817.77) (-670.739 725.627 5817.77) (-569.5 30.4124 5878.36) (-569.5 30.4124 5878.36) (-498.027 488.047 6412.49) (-498.027 488.047 6412.49) (25.5043 -350.041 6627.08) (25.5043 -350.041 6627.08)
2200          (-1476.7 -182.131 6266.13) (-1476.7 -182.131 6266.13) (-1476.7 -182.131 6266.13) (-670.748 725.633 5817.64) (-670.748 725.633 5817.64) (-569.514 30.4129 5878.32) (-569.514 30.4129 5878.32) (-498.041 488.06 6412.57) (-498.041 488.06 6412.57) (25.5051 -350.051 6627.3) (25.5051 -350.051 6627.3)
2250          (-1476.7 -182.131 6266.13) (-1476.7 -182.131 6266.13) (-1476.7 -182.131 6266.13) (-670.748 725.633 5817.64) (-670.748 725.633 5817.64) (-569.514 30.4129 5878.32) (-569.514 30.4129 5878.32) (-498.041 488.06 6412.57) (-498.041 488.06 6412.57) (25.5051 -350.051 6627.3) (25.5051 -350.051 6627.3)
2300          (-1476.7 -182.13 6266.06) (-1476.7 -182.13 6266.06) (-1476.7 -182.13 6266.06) (-670.75 725.635 5817.58) (-670.75 725.635 5817.58) (-569.519 30.4117 5878.29) (-569.519 30.4117 5878.29) (-498.047 488.062 6412.59) (-498.047 488.062 6412.59) (25.505 -350.054 6627.41) (25.505 -350.054 6627.41)
2350          (-1476.7 -182.13 6266.06) (-1476.7 -182.13 6266.06) (-1476.7 -182.13 6266.06) (-670.75 725.635 5817.58) (-670.75 725.635 5817.58) (-569.519 30.4117 5878.29) (-569.519 30.4117 5878.29) (-498.047 488.062 6412.59) (-498.047 488.062 6412.59) (25.505 -350.054 6627.41) (25.505 -350.054 6627.41)
2400          (-1476.7 -182.13 6266.06) (-1476.7 -182.13 6266.06) (-1476.7 -182.13 6266.06) (-670.75 725.635 5817.58) (-670.75 725.635 5817.58) (-569.519 30.4117 5878.29) (-569.519 30.4117 5878.29) (-498.047 488.062 6412.59) (-498.047 488.062 6412.59) (25.505 -350.054 6627.41) (25.505 -350.054 6627.41)
2450          (-1476.7 -182.13 6266.06) (-1476.7 -182.13 6266.06) (-1476.7 -182.13 6266.06) (-670.75 725.635 5817.58) (-670.75 725.635 5817.58) (-569.519 30.4117 5878.29) (-569.519 30.4117 5878.29) (-498.047 488.062 6412.59) (-498.047 488.062 6412.59) (25.505 -350.054 6627.41) (25.505 -350.054 6627.41)
2500          (-1476.7 -182.13 6266.06) (-1476.7 -182.13 6266.06) (-1476.7 -182.13 6266.06) (-670.75 725.635 5817.58) (-670.75 725.635 5817.58) (-569.519 30.4117 5878.29) (-569.519 30.4117 5878.29) (-498.047 488.062 6412.59) (-498.047 488.062 6412.59) (25.505 -350.054 6627.41) (25.505 -350.054 6627.41)
2550          (-1476.7 -182.13 6266.06) (-1476.7 -182.13 6266.06) (-1476.7 -182.13 6266.06) (-670.75 725.635 5817.58) (-670.75 725.635 5817.58) (-569.519 30.4117 5878.29) (-569.519 30.4117 5878.29) (-498.047 488.062 6412.59) (-498.047 488.062 6412.59) (25.505 -350.054 6627.41) (25.505 -350.054 6627.41)
2600          (-1476.7 -182.13 6266.06) (-1476.7 -182.13 6266.06) (-1476.7 -182.13 6266.06) (-670.75 725.635 5817.58) (-670.75 725.635 5817.58) (-569.519 30.4117 5878.29) (-569.519 30.4117 5878.29) (-498.047 488.062 6412.59) (-498.047 488.062 6412.59) (25.505 -350.054 6627.41) (25.505 -350.054 6627.41)
2650          (-1476.7 -182.13 6266.06) (-1476.7 -182.13 6266.06) (-1476.7 -182.13 6266.06) (-670.75 725.635 5817.58) (-670.75 725.635 5817.58) (-569.519 30.4117 5878.29) (-569.519 30.4117 5878.29) (-498.047 488.062 6412.59) (-498.047 488.062 6412.59) (25.505 -350.054 6627.41) (25.505 -350.054 6627.41)
2700          (-1476.7 -182.13 6266.06) (-1476.7 -182.13 6266.06) (-1476.7 -182.13 6266.06) (-670.75 725.635 5817.58) (-670.75 725.635 5817.58) (-569.519 30.4117 5878.29) (-569.519 30.4117 5878.29) (-498.047 488.062 6412.59) (-498.047 488.062 6412.59) (25.505 -350.054 6627.41) (25.505 -350.054 6627.41)
2750          (-1476.7 -182.13 6266.06) (-1476.7 -182.13 6266.06) (-1476.7 -182.13 6266.06) (-670.75 725.635 5817.58) (-670.75 725.635 5817.58) (-569.519 30.4117 5878.29) (-569.519 30.4117 5878.29) (-498.047 488.062 6412.59) (-498.047 488.062 6412.59) (25.505 -350.054 6627.41) (25.505 -350.054 6627.41)
2800          (-1476.7 -182.13 6266.06) (-1476.7 -182.13 6266.06) (-1476.7 -182.13 6266.06) (-670.75 725.635 5817.58) (-670.75 725.635 5817.58) (-569.519 30.4117 5878.29) (-569.519 30.4117 5878.29) (-498.047 488.062 6412.59) (-498.047 488.062 6412.59) (25.505 -350.054 6627.41) (25.505 -350.054 6627.41)
2850          (-1476.7 -182.13 6266.06) (-1476.7 -182.13 6266.06) (-1476.7 -182.13 6266.06) (-670.75 725.635 5817.58) (-670.75 725.635 5817.58) (-569.519 30.4117 5878.29) (-569.519 30.4117 5878.29) (-498.047 488.062 6412.59) (-498.047 488.062 6412.59) (25.505 -350.054 6627.41) (25.505 -350.054 6627.41)
2900          (-1476.7 -182.13 6266.06) (-1476.7 -182.13 6266.06) (-1476.7 -182.13 6266.06) (-670.75 725.635 5817.58) (-670.75 725.635 5817.58) (-569.519 30.4117 5878.29) (-569.519 30.4117 5878.29) (-498.047 488.062 6412.59) (-498.047 488.062 6412.59) (25.505 -350.054 6627.41) (25.505 -350.054 6627.41)
2950          (-1476.7 -182.13 6266.06) (-1476.7 -182.13 6266.06) (-1476.7 -182.13 6266.06) (-670.75 725.635 5817.58) (-670.75 725.635 5817.58) (-569.519 30.4117 5878.29) (-569.519 30.4117 5878.29) (-498.047 488.062 6412.59) (-498.047 488.062 6412.59) (25.505 -350.054 6627.41) (25.505 -350.054 6627.41)
3000          (-1476.7 -182.13 6266.06) (-1476.7 -182.13 6266.06) (-1476.7 -182.13 6266.06) (-670.75 725.635 5817.58) (-670.75 725.635 5817.58) (-569.519 30.4117 5878.29) (-569.519 30.4117 5878.29) (-498.047 488.062 6412.59) (-498.047 488.062 6412.59) (25.505 -350.054 6627.41) (25.505 -350.054 6627.41)
3050          (-1476.7 -182.13 6266.06) (-1476.7 -182.13 6266.06) (-1476.7 -182.13 6266.06) (-670.75 725.635 5817.58) (-670.75 725.635 5817.58) (-569.519 30.4117 5878.29) (-569.519 30.4117 5878.29) (-498.047 488.062 6412.59) (-498.047 488.062 6412.59) (25.505 -350.054 6627.41) (25.505 -350.054 6627.41)
3100          (-1476.7 -182.13 6266.06) (-1476.7 -182.13 6266.06) (-1476.7 -182.13 6266.06) (-670.75 725.635 5817.58) (-670.75 725.635 5817.58) (-569.519 30.4117 5878.29) (-569.519 30.4117 5878.29) (-498.047 488.062 6412.59) (-498.047 488.062 6412.59) (25.505 -350.054 6627.41) (25.505 -350.054 6627.41)
3150          (-1476.7 -182.13 6266.06) (-1476.7 -182.13 6266.06) (-1476.7 -182.13 6266.06) (-670.75 725.635 5817.58) (-670.75 725.635 5817.58) (-569.519 30.4117 5878.29) (-569.519 30.4117 5878.29) (-498.047 488.062 6412.59) (-498.047 488.062 6412.59) (25.505 -350.054 6627.41) (25.505 -350.054 6627.41)
3200          (-1476.7 -182.13 6266.06) (-1476.7 -182.13 6266.06) (-1476.7 -182.13 6266.06) (-670.75 725.635 5817.58) (-670.75 725.635 5817.58) (-569.519 30.4117 5878.29) (-569.519 30.4117 5878.29) (-498.047 488.062 6412.59) (-498.047 488.062 6412.59) (25.505 -350.054 6627.41) (25.505 -350.054 6627.41)
3250          (-1476.7 -182.13 6266.06) (-1476.7 -182.13 6266.06) (-1476.7 -182.13 6266.06) (-670.75 725.635 5817.58) (-670.75 725.635 5817.58) (-569.519 30.4117 5878.29) (-569.519 30.4117 5878.29) (-498.047 488.062 6412.59) (-498.047 488.062 6412.59) (25.505 -350.054 6627.41) (25.505 -350.054 6627.41)
3300          (-1476.7 -182.13 6266.06) (-1476.7 -182.13 6266.06) (-1476.7 -182.13 6266.06) (-670.75 725.635 5817.58) (-670.75 725.635 5817.58) (-569.519 30.4117 5878.29) (-569.519 30.4117 5878.29) (-498.047 488.062 6412.59) (-498.047 488.062 6412.59) (25.505 -350.054 6627.41) (25.505 -350.054 6627.41)
3350          (-1476.7 -182.13 6266.06) (-1476.7 -182.13 6266.06) (-1476.7 -182.13 6266.06) (-670.75 725.635 5817.58) (-670.75 725.635 5817.58) (-569.519 30.4117 5878.29) (-569.519 30.4117 5878.29) (-498.047 488.062 6412.59) (-498.047 488.062 6412.59) (25.505 -350.054 6627.41) (25.505 -350.054 6627.41)
3400          (-1476.7 -182.13 6266.06) (-1476.7 -182.13 6266.06) (-1476.7 -182.13 6266.06) (-670.75 725.635 5817.58) (-670.75 725.635 5817.58) (-569.519 30.4117 5878.29) (-569.519 30.4117 5878.29) (-498.047 488.062 6412.59) (-498.047 488.062 6412.59) (25.505 -350.054 6627.41) (25.505 -350.054 6627.41)
3450          (-1476.7 -182.13 6266.06) (-1476.7 -182.13 6266.06) (-1476.7 -182.13 6266.06) (-670.75 725.635 5817.58) (-670.75 725.635 5817.58) (-569.519 30.4117 5878.29) (-569.519 30.4117 5878.29) (-498.047 488.062 6412.59) (-498.047 488.062 6412.59) (25.505 -350.054 6627.41) (25.505 -350.054 6627.41)
3500          (-1476.7 -182.13 6266.06) (-1476.7 -182.13 6266.06) (-1476.7 -182.13 6266.06) (-670.75 725.635 5817.58) (-670.75 725.635 5817.58) (-569.519 30.4117 5878.29) (-569.519 30.4117 5878.29) (-498.047 488.062 6412.59) (-498.047 488.062 6412.59) (25.505 -350.054 6627.41) (25.505 -350.054 6627.41)
3550          (-1476.7 -182.13 6266.06) (-1476.7 -182.13 6266.06) (-1476.7 -182.13 6266.06) (-670.75 725.635 5817.58) (-670.75 725.635 5817.58) (-569.519 30.4117 5878.29) (-569.519 30.4117 5878.29) (-498.047 488.062 6412.59) (-498.047 488.062 6412.59) (25.505 -350.054 6627.41) (25.505 -350.054 6627.41)
3600          (-1476.7 -182.13 6266.06) (-1476.7 -182.13 6266.06) (-1476.7 -182.13 6266.06) (-670.75 725.635 5817.58) (-670.75 725.635 5817.58) (-569.519 30.4117 5878.29) (-569.519 30.4117 5878.29) (-498.047 488.062 6412.59) (-498.047 488.062 6412.59) (25.505 -350.054 6627.41) (25.505 -350.054 6627.41)
3650          (-1476.7 -182.13 6266.06) (-1476.7 -182.13 6266.06) (-1476.7 -182.13 6266.06) (-670.75 725.635 5817.58) (-670.75 725.635 5817.58) (-569.519 30.4117 5878.29) (-569.519 30.4117 5878.29) (-498.047 488.062 6412.59) (-498.047 488.062 6412.59) (25.505 -350.054 6627.41) (25.505 -350.054 6627.41)
3700          (-1476.7 -182.13 6266.06) (-1476.7 -182.13 6266.06) (-1476.7 -182.13 6266.06) (-670.75 725.635 5817.58) (-670.75 725.635 5817.58) (-569.519 30.4117 5878.29) (-569.519 30.4117 5878.29) (-498.047 488.062 6412.59) (-498.047 488.062 6412.59) (25.505 -350.054 6627.41) (25.505 -350.054 6627.41)
3750          (-1476.7 -182.13 6266.06) (-1476.7 -182.13 6266.06) (-1476.7 -182.13 6266.06) (-670.75 725.635 5817.58) (-670.75 725.635 5817.58) (-569.519 30.4117 5878.29) (-569.519 30.4117 5878.29) (-498.047 488.062 6412.59) (-498.047 488.062 6412.59) (25.505 -350.054 6627.41) (25.505 -350.054 6627.41)
3800          (-1476.7 -182.13 6266.06) (-1476.7 -182.13 6266.06) (-1476.7 -182.13 6266.06) (-670.75 725.635 5817.58) (-670.75 725.635 5817.58) (-569.519 30.4117 5878.29) (-569.519 30.4117 5878.29) (-498.047 488.062 6412.59) (-498.047 488.062 6412.59) (25.505 -350.054 6627.41) (25.505 -350.054 6627.41)
3850          (-1476.7 -182.13 6266.06) (-1476.7 -182.13 6266.06) (-1476.7 -182.13 6266.06) (-670.75 725.635 5817.58) (-670.75 725.635 5817.58) (-569.519 30.4117 5878.29) (-569.519 30.4117 5878.29) (-498.047 488.062 6412.59) (-498.047 488.062 6412.59) (25.505 -350.054 6627.41) (25.505 -350.054 6627.41)
3900          (-1476.7 -182.13 6266.06) (-1476.7 -182.13 6266.06) (-1476.7 -182.13 6266.06) (-670.75 725.635 5817.58) (-670.75 725.635 5817.58) (-569.519 30.4117 5878.29) (-569.519 30.4117 5878.29) (-498.047 488.062 6412.59) (-498.047 488.062 6412.59) (25.505 -350.054 6627.41) (25.505 -350.054 6627.41)
3950          (-1476.7 -182.13 6266.06) (-1476.7 -182.13 6266.06) (-1476.7 -182.13 6266.06) (-670.75 725.635 5817.58) (-670.75 725.635 5817.58) (-569.519 30.4117 5878.29) (-569.519 30.4117 5878.29) (-498.047 488.062 6412.59) (-498.047 488.062 6412.59) (25.505 -350.054 6627.41) (25.505 -350.054 6627.41)
4000          (-1476.7 -182.13 6266.06) (-1476.7 -182.13 6266.06) (-1476.7 -182.13 6266.06) (-670.75 725.635 5817.58) (-670.75 725.635 5817.58) (-569.519 30.4117 5878.29) (-569.519 30.4117 5878.29) (-498.047 488.062 6412.59) (-498.047 488.062 6412.59) (25.505 -350.054 6627.41) (25.505 -350.054 6627.41)
4050          (-1476.7 -182.13 6266.06) (-1476.7 -182.13 6266.06) (-1476.7 -182.13 6266.06) (-670.75 725.635 5817.58) (-670.75 725.635 5817.58) (-569.519 30.4117 5878.29) (-569.519 30.4117 5878.29) (-498.047 488.062 6412.59) (-498.047 488.062 6412.59) (25.505 -350.054 6627.41) (25.505 -350.054 6627.41)
4100          (-1476.7 -182.13 6266.06) (-1476.7 -182.13 6266.06) (-1476.7 -182.13 6266.06) (-670.75 725.635 5817.58) (-670.75 725.635 5817.58) (-569.519 30.4117 5878.29) (-569.519 30.4117 5878.29) (-498.047 488.062 6412.59) (-498.047 488.062 6412.59) (25.505 -350.054 6627.41) (25.505 -350.054 6627.41)
4150          (-1476.7 -182.13 6266.06) (-1476.7 -182.13 6266.06) (-1476.7 -182.13 6266.06) (-670.75 725.635 5817.58) (-670.75 725.635 5817.58) (-569.519 30.4117 5878.29) (-569.519 30.4117 5878.29) (-498.047 488.062 6412.59) (-498.047 488.062 6412.59) (25.505 -350.054 6627.41) (25.505 -350.054 6627.41)
4200          (-1476.7 -182.13 6266.06) (-1476.7 -182.13 6266.06) (-1476.7 -182.13 6266.06) (-670.75 725.635 5817.58) (-670.75 725.635 5817.58) (-569.519 30.4117 5878.29) (-569.519 30.4117 5878.29) (-498.047 488.062 6412.59) (-498.047 488.062 6412.59) (25.505 -350.054 6627.41) (25.505 -350.054 6627.41)
4250          (-1476.7 -182.13 6266.06) (-1476.7 -182.13 6266.06) (-1476.7 -182.13 6266.06) (-670.75 725.635 5817.58) (-670.75 725.635 5817.58) (-569.519 30.4117 5878.29) (-569.519 30.4117 5878.29) (-498.047 488.062 6412.59) (-498.047 488.062 6412.59) (25.505 -350.054 6627.41) (25.505 -350.054 6627.41)
4300          (-1476.7 -182.13 6266.06) (-1476.7 -182.13 6266.06) (-1476.7 -182.13 6266.06) (-670.75 725.635 5817.58) (-670.75 725.635 5817.58) (-569.519 30.4117 5878.29) (-569.519 30.4117 5878.29) (-498.047 488.062 6412.59) (-498.047 488.062 6412.59) (25.505 -350.054 6627.41) (25.505 -350.054 6627.41)
4350          (-1476.7 -182.13 6266.06) (-1476.7 -182.13 6266.06) (-1476.7 -182.13 6266.06) (-670.75 725.635 5817.58) (-670.75 725.635 5817.58) (-569.519 30.4117 5878.29) (-569.519 30.4117 5878.29) (-498.047 488.062 6412.59) (-498.047 488.062 6412.59) (25.505 -350.054 6627.41) (25.505 -350.054 6627.41)
4400          (-1476.7 -182.13 6266.06) (-1476.7 -182.13 6266.06) (-1476.7 -182.13 6266.06) (-670.75 725.635 5817.58) (-670.75 725.635 5817.58) (-569.519 30.4117 5878.29) (-569.519 30.4117 5878.29) (-498.047 488.062 6412.59) (-498.047 488.062 6412.59) (25.505 -350.054 6627.41) (25.505 -350.054 6627.41)
4450          (-1476.7 -182.13 6266.06) (-1476.7 -182.13 6266.06) (-1476.7 -182.13 6266.06) (-670.75 725.635 5817.58) (-670.75 725.635 5817.58) (-569.519 30.4117 5878.29) (-569.519 30.4117 5878.29) (-498.047 488.062 6412.59) (-498.047 488.062 6412.59) (25.505 -350.054 6627.41) (25.505 -350.054 6627.41)
4500          (-1476.7 -182.13 6266.06) (-1476.7 -182.13 6266.06) (-1476.7 -182.13 6266.06) (-670.75 725.635 5817.58) (-670.75 725.635 5817.58) (-569.519 30.4117 5878.29) (-569.519 30.4117 5878.29) (-498.047 488.062 6412.59) (-498.047 488.062 6412.59) (25.505 -350.054 6627.41) (25.505 -350.054 6627.41)
4550          (-1476.7 -182.13 6266.06) (-1476.7 -182.13 6266.06) (-1476.7 -182.13 6266.06) (-670.75 725.635 5817.58) (-670.75 725.635 5817.58) (-569.519 30.4117 5878.29) (-569.519 30.4117 5878.29) (-498.047 488.062 6412.59) (-498.047 488.062 6412.59) (25.505 -350.054 6627.41) (25.505 -350.054 6627.41)
4600          (-1476.7 -182.13 6266.06) (-1476.7 -182.13 6266.06) (-1476.7 -182.13 6266.06) (-670.75 725.635 5817.58) (-670.75 725.635 5817.58) (-569.519 30.4117 5878.29) (-569.519 30.4117 5878.29) (-498.047 488.062 6412.59) (-498.047 488.062 6412.59) (25.505 -350.054 6627.41) (25.505 -350.054 6627.41)
4650          (-1476.7 -182.13 6266.06) (-1476.7 -182.13 6266.06) (-1476.7 -182.13 6266.06) (-670.75 725.635 5817.58) (-670.75 725.635 5817.58) (-569.519 30.4117 5878.29) (-569.519 30.4117 5878.29) (-498.047 488.062 6412.59) (-498.047 488.062 6412.59) (25.505 -350.054 6627.41) (25.505 -350.054 6627.41)
4700          (-1476.7 -182.13 6266.06) (-1476.7 -182.13 6266.06) (-1476.7 -182.13 6266.06) (-670.75 725.635 5817.58) (-670.75 725.635 5817.58) (-569.519 30.4117 5878.29) (-569.519 30.4117 5878.29) (-498.047 488.062 6412.59) (-498.047 488.062 6412.59) (25.505 -350.054 6627.41) (25.505 -350.054 6627.41)
4750          (-1476.7 -182.13 6266.06) (-1476.7 -182.13 6266.06) (-1476.7 -182.13 6266.06) (-670.75 725.635 5817.58) (-670.75 725.635 5817.58) (-569.519 30.4117 5878.29) (-569.519 30.4117 5878.29) (-498.047 488.062 6412.59) (-498.047 488.062 6412.59) (25.505 -350.054 6627.41) (25.505 -350.054 6627.41)
4800          (-1476.7 -182.13 6266.06) (-1476.7 -182.13 6266.06) (-1476.7 -182.13 6266.06) (-670.75 725.635 5817.58) (-670.75 725.635 5817.58) (-569.519 30.4117 5878.29) (-569.519 30.4117 5878.29) (-498.047 488.062 6412.59) (-498.047 488.062 6412.59) (25.505 -350.054 6627.41) (25.505 -350.054 6627.41)