# Probe 0 (0.0015 0.0015 0)
# Probe 1 (0.0015 0.0015 0.002)
# Probe 2 (0.0015 0.0015 0.004)
# Probe 3 (0.0015 0.0015 0.006)
# Probe 4 (0.0015 0.0015 0.008)
# Probe 5 (0.0015 0.0015 0.01)
# Probe 6 (0.0015 0.0015 0.012)
# Probe 7 (0.0015 0.0015 0.014)
# Probe 8 (0.0015 0.0015 0.016)
# Probe 9 (0.0015 0.0015 0.018)
# Probe 10 (0.0015 0.0015 0.02)
# Time        0             1             2             3             4             5             6             7             8             9             10           
50            72020.1       72020.1       72020.1       12286.1       12286.1       2658.78       2658.78       1637.98       1637.98       3417.4        3417.4       
100           113151        113151        113151        26370.5       26370.5       4944.63       4944.63       2110.46       2110.46       3992.64       3992.64      
150           135753        135753        135753        45683.2       45683.2       8991.57       8991.57       2918.54       2918.54       4670.38       4670.38      
200           148137        148137        148137        64766.8       64766.8       15347.5       15347.5       4244.46       4244.46       5445.93       5445.93      
250           156688        156688        156688        80594.7       80594.7       24166.8       24166.8       6357.48       6357.48       6367.92       6367.92      
300           163021        163021        163021        92671.9       92671.9       34451.7       34451.7       9544.21       9544.21       7529.94       7529.94      
350           167843        167843        167843        102124        102124        44976.5       44976.5       14064.1       14064.1       9065.87       9065.87      
400           171745        171745        171745        109997        109997        54912         54912         19957         19957         11124.5       11124.5      
450           175057        175057        175057        116785        116785        63910.7       63910.7       26930.6       26930.6       13819.6       13819.6      
500           177935        177935        177935        122729        122729        72012.6       72012.6       34455.4       34455.4       17159.8       17159.8      
550           180474        180474        180474        128005        128005        79343         79343         41935.7       41935.7       20983.6       20983.6      
600           182734        182734        182734        132710        132710        85931.8       85931.8       48886.4       48886.4       24977.9       24977.9      
650           184737        184737        184737        136872        136872        91742         91742         55029.1       55029.1       28799.6       28799.6      
700           186487        186487        186487        140490        140490        96743.7       96743.7       60264.6       60264.6       32198.6       32198.6      
750           187983        187983        187983        143566        143566        100948        100948        64605.1       64605.1       35060.2       35060.2      
800           189233        189233        189233        146123        146123        104406        104406        68124.5       68124.5       37378.9       37378.9      
850           190261        190261        190261        148208        148208        107195        107195        70925.6       70925.6       39209.7       39209.7      
900           191088        191088        191088        149879        149879        109410        109410        73123.3       73123.3       40631.4       40631.4      
950           191744        191744        191744        151199        151199        111145        111145        74828.4       74828.4       41723.7       41723.7      
1000          192257        192257        192257        152228        152228        112491        112491        76140.1       76140.1       42556.9       42556.9      
1050          192655        192655        192655        153023        153023        113526        113526        77142.9       77142.9       43189.7       43189.7      
1100          192961        192961        192961        153633        153633        114317        114317        77905.8       77905.8       43668.6       43668.6      
1150          193195        193195        193195        154099        154099        114919        114919        78484.1       78484.1       44030.2       44030.2      
1200          193372        193372        193372        154452        154452        115375        115375        78921.4       78921.4       44302.9       44302.9      
1250          193507        193507        193507        154720        154720        115720        115720        79251.5       79251.5       44508.3       44508.3      
1300          193609        193609        193609        154922        154922        115980        115980        79500.1       79500.1       44662.8       44662.8      
1350          193686        193686        193686        155075        155075        116177        116177        79687.3       79687.3       44778.9       44778.9      
1400          193744        193744        193744        155190        155190        116324        116324        79828         79828         44866.2       44866.2      
1450          193787        193787        193787        155276        155276        116435        116435        79933.7       79933.7       44931.7       44931.7      
1500          193820        193820        193820        155341        155341        116518        116518        80013         80013         44980.9       44980.9      
1550          193844        193844        193844        155389        155389        116581        116581        80072.4       80072.4       45017.7       45017.7      
1600          193862        193862        193862        155425        155425        116626        116626        80115.8       80115.8       45044.6       45044.6      
1650          193876        193876        193876        155452        155452        116661        116661        80148.9       80148.9       45065.2       45065.2      
1700          193886        193886        193886        155472        155472        116687        116687        80173.9       80173.9       45080.7       45080.7      
1750          193894        193894        193894        155487        155487        116706        116706        80192.4       80192.4       45092.1       45092.1      
1800          193899        193899        193899        155498        155498        116720        116720        80205.6       80205.6       45100.3       45100.3      
1850          193903        193903        193903        155507        155507        116732        116732        80216.5       80216.5       45107.1       45107.1      
1900          193907        193907        193907        155513        155513        116740        116740        80224.2       80224.2       45111.9       45111.9      
1950          193909        193909        193909        155518        155518        116746        116746        80229.8       80229.8       45115.3       45115.3      
2000          193910        193910        193910        155520        155520        116749        116749        80233.2       80233.2       45117.5       45117.5      
2050          193912        193912        193912        155523        155523        116753        116753        80236.6       80236.6       45119.5       45119.5      
2100          193913        193913        193913        155525        155525        116755        116755        80238.8       80238.8       45120.9       45120.9      
2150          193913        193913        193913        155526        155526        116756        116756        80239.9       80239.9       45121.7       45121.7      
2200          193913        193913        193913        155527        155527        116757        116757        80241         80241         45122.4       45122.4      
2250          193913        193913        193913        155527        155527        116757        116757        80241         80241         45122.4       45122.4      
2300          193913        193913        193913        155527        155527        116757        116757        80241         80241         45122.4       45122.4      
2350          193913        193913        193913        155527        155527        116757        116757        80241         80241         45122.4       45122.4      
2400          193913        193913        193913        155527        155527        116757        116757        80241         80241         45122.4       45122.4      
2450          193913        193913        193913        155527        155527        116757        116757        80241         80241         45122.4       45122.4      
2500          193913        193913        193913        155527        155527        116757        116757        80241         80241         45122.4       45122.4      
2550          193913        193913        193913        155527        155527        116757        116757        80241         80241         45122.4       45122.4      
2600          193913        193913        193913        155527        155527        116757        116757        80241         80241         45122.4       45122.4      
2650          193913        193913        193913        155527        155527        116757        116757        80241         80241         45122.4       45122.4      
2700          193913        193913        193913        155527        155527        116757        116757        80241         80241         45122.4       45122.4      
2750          193913        193913        193913        155527        155527        116757        116757        80241         80241         45122.4       45122.4      
2800          193913        193913        193913        155527        155527        116757        116757        80241         80241         45122.4       45122.4      
2850          193913        193913        193913        155527        155527        116757        116757        80241         80241         45122.4       45122.4      
2900          193913        193913        193913        155527        155527        116757        116757        80241         80241         45122.4       45122.4      
2950          193913        193913        193913        155527        155527        116757        116757        80241         80241         45122.4       45122.4      
3000          193913        193913        193913        155527        155527        116757        116757        80241         80241         45122.4       45122.4      
3050          193913        193913        193913        155527        155527        116757        116757        80241         80241         45122.4       45122.4      
3100          193913        193913        193913        155527        155527        116757        116757        80241         80241         45122.4       45122.4      
3150          193913        193913        193913        155527        155527        116757        116757        80241         80241         45122.4       45122.4      
3200          193913        193913        193913        155527        155527        116757        116757        80241         80241         45122.4       45122.4      
3250          193913        193913        193913        155527        155527        116757        116757        80241         80241         45122.4       45122.4      
3300          193913        193913        193913        155527        155527        116757        116757        80241         80241         45122.4       45122.4      
3350          193913        193913        193913        155527        155527        116757        116757        80241         80241         45122.4       45122.4      
3400          193913        193913        193913        155527        155527        116757        116757        80241         80241         45122.4       45122.4      
3450          193913        193913        193913        155527        155527        116757        116757        80241         80241         45122.4       45122.4      
3500          193913        193913        193913        155527        155527        116757        116757        80241         80241         45122.4       45122.4      
3550          193913        193913        193913        155527        155527        116757        116757        80241         80241         45122.4       45122.4      
3600          193913        193913        193913        155527        155527        116757        116757        80241         80241         45122.4       45122.4      
3650          193913        193913        193913        155527        155527        116757        116757        80241         80241         45122.4       45122.4      
3700          193913        193913        193913        155527        155527        116757        116757        80241         80241         45122.4       45122.4      
3750          193913        193913        193913        155527        155527        116757        116757        80241         80241         45122.4       45122.4      
3800          193913        193913        193913        155527        155527        116757        116757        80241         80241         45122.4       45122.4      
3850          193913        193913        193913        155527        155527        116757        116757        80241         80241         45122.4       45122.4      
3900          193913        193913        193913        155527        155527        116757        116757        80241         80241         45122.4       45122.4      
3950          193913        193913        193913        155527        155527        116757        116757        80241         80241         45122.4       45122.4      
4000          193913        193913        193913        155527        155527        116757        116757        80241         80241         45122.4       45122.4      
4050          193913        193913        193913        155527        155527        116757        116757        80241         80241         45122.4       45122.4      
4100          193913        193913        193913        155527        155527        116757        116757        80241         80241         45122.4       45122.4      
4150          193913        193913        193913        155527        155527        116757        116757        80241         80241         45122.4       45122.4      
4200          193913        193913        193913        155527        155527        116757        116757        80241         80241         45122.4       45122.4      
4250          193913        193913        193913        155527        155527        116757        116757        80241         80241         45122.4       45122.4      
4300          193913        193913        193913        155527        155527        116757        116757        80241         80241         45122.4       45122.4      
4350          193913        193913        193913        155527        155527        116757        116757        80241         80241         45122.4       45122.4      
4400          193913        193913        193913        155527        155527        116757        116757        80241         80241         45122.4       45122.4      
4450          193913        193913        193913        155527        155527        116757        116757        80241         80241         45122.4       45122.4      
4500          193913        193913        193913        155527        155527        116757        116757        80241         80241         45122.4       45122.4      
4550          193913        193913        193913        155527        155527        116757        116757        80241         80241         45122.4       45122.4      
4600          193913        193913        193913        155527        155527        116757        116757        80241         80241         45122.4       45122.4      
4650          193913        193913        193913        155527        155527        116757        116757        80241         80241         45122.4       45122.4      
4700          193913        193913        193913        155527        155527        116757        116757        80241         80241         45122.4       45122.4      
4750          193913        193913        193913        155527        155527        116757        116757        80241         80241         45122.4       45122.4      
4800          193913        193913        193913        155527        155527        116757        116757        80241         80241         45122.4       45122.4      
4850          193913        193913        193913        155527        155527        116757        116757        80241         80241         45122.4       45122.4      
4900          193913        193913        193913        155527        155527        116757        116757        80241         80241         45122.4       45122.4      
4950          193913        193913        193913        155527        155527        116757        116757        80241         80241         45122.4       45122.4      
5000          193913        193913        193913        155527        155527        116757        116757        80241         80241         45122.4       45122.4      
