# Probe 0 (0.0015 0.0015 0)
# Probe 1 (0.0015 0.0015 0.002)
# Probe 2 (0.0015 0.0015 0.004)
# Probe 3 (0.0015 0.0015 0.006)
# Probe 4 (0.0015 0.0015 0.008)
# Probe 5 (0.0015 0.0015 0.01)
# Probe 6 (0.0015 0.0015 0.012)
# Probe 7 (0.0015 0.0015 0.014)
# Probe 8 (0.0015 0.0015 0.016)
# Probe 9 (0.0015 0.0015 0.018)
# Probe 10 (0.0015 0.0015 0.02)
# Time        0             1             2             3             4             5             6             7             8             9             10           
50            0.000575411   0.000575411   0.000575411   0.000699949   0.000699949   0.000580668   0.000580668   0.000648476   0.000648476   0.000481178   0.000481178  
100           0.000575411   0.000575411   0.000575411   0.000699949   0.000699949   0.000580668   0.000580668   0.000648476   0.000648476   0.000481178   0.000481178  
150           0.000575411   0.000575411   0.000575411   0.000699949   0.000699949   0.000580668   0.000580668   0.000648476   0.000648476   0.000481178   0.000481178  
200           0.000575411   0.000575411   0.000575411   0.000699949   0.000699949   0.000580668   0.000580668   0.000648476   0.000648476   0.000481178   0.000481178  
250           0.000575411   0.000575411   0.000575411   0.000699949   0.000699949   0.000580668   0.000580668   0.000648476   0.000648476   0.000481178   0.000481178  
300           0.000575411   0.000575411   0.000575411   0.000699949   0.000699949   0.000580668   0.000580668   0.000648476   0.000648476   0.000481178   0.000481178  
350           0.000575411   0.000575411   0.000575411   0.000699949   0.000699949   0.000580668   0.000580668   0.000648476   0.000648476   0.000481178   0.000481178  
400           0.000575411   0.000575411   0.000575411   0.000699949   0.000699949   0.000580668   0.000580668   0.000648476   0.000648476   0.000481178   0.000481178  
450           0.000575411   0.000575411   0.000575411   0.000699949   0.000699949   0.000580668   0.000580668   0.000648476   0.000648476   0.000481178   0.000481178  
500           0.000575411   0.000575411   0.000575411   0.000699949   0.000699949   0.000580668   0.000580668   0.000648476   0.000648476   0.000481178   0.000481178  
550           0.000575411   0.000575411   0.000575411   0.000699949   0.000699949   0.000580668   0.000580668   0.000648476   0.000648476   0.000481178   0.000481178  
600           0.000575411   0.000575411   0.000575411   0.000699949   0.000699949   0.000580668   0.000580668   0.000648476   0.000648476   0.000481178   0.000481178  
650           0.000575411   0.000575411   0.000575411   0.000699949   0.000699949   0.000580668   0.000580668   0.000648476   0.000648476   0.000481178   0.000481178  
700           0.000575411   0.000575411   0.000575411   0.000699949   0.000699949   0.000580668   0.000580668   0.000648476   0.000648476   0.000481178   0.000481178  
750           0.000575411   0.000575411   0.000575411   0.000699949   0.000699949   0.000580668   0.000580668   0.000648476   0.000648476   0.000481178   0.000481178  
800           0.000575411   0.000575411   0.000575411   0.000699949   0.000699949   0.000580668   0.000580668   0.000648476   0.000648476   0.000481178   0.000481178  
850           0.000575411   0.000575411   0.000575411   0.000699949   0.000699949   0.000580668   0.000580668   0.000648476   0.000648476   0.000481178   0.000481178  
900           0.000575411   0.000575411   0.000575411   0.000699949   0.000699949   0.000580668   0.000580668   0.000648476   0.000648476   0.000481178   0.000481178  
950           0.000575411   0.000575411   0.000575411   0.000699949   0.000699949   0.000580668   0.000580668   0.000648476   0.000648476   0.000481178   0.000481178  
1000          0.000575411   0.000575411   0.000575411   0.000699949   0.000699949   0.000580668   0.000580668   0.000648476   0.000648476   0.000481178   0.000481178  
1050          0.000575411   0.000575411   0.000575411   0.000699949   0.000699949   0.000580668   0.000580668   0.000648476   0.000648476   0.000481178   0.000481178  
1100          0.000575411   0.000575411   0.000575411   0.000699949   0.000699949   0.000580668   0.000580668   0.000648476   0.000648476   0.000481178   0.000481178  
1150          0.000575411   0.000575411   0.000575411   0.000699949   0.000699949   0.000580668   0.000580668   0.000648476   0.000648476   0.000481178   0.000481178  
1200          0.000575411   0.000575411   0.000575411   0.000699949   0.000699949   0.000580668   0.000580668   0.000648476   0.000648476   0.000481178   0.000481178  
1250          0.000575411   0.000575411   0.000575411   0.000699949   0.000699949   0.000580668   0.000580668   0.000648476   0.000648476   0.000481178   0.000481178  
1300          0.000575411   0.000575411   0.000575411   0.000699949   0.000699949   0.000580668   0.000580668   0.000648476   0.000648476   0.000481178   0.000481178  
1350          0.000575411   0.000575411   0.000575411   0.000699949   0.000699949   0.000580668   0.000580668   0.000648476   0.000648476   0.000481178   0.000481178  
1400          0.000575411   0.000575411   0.000575411   0.000699949   0.000699949   0.000580668   0.000580668   0.000648476   0.000648476   0.000481178   0.000481178  
1450          0.000575411   0.000575411   0.000575411   0.000699949   0.000699949   0.000580668   0.000580668   0.000648476   0.000648476   0.000481178   0.000481178  
1500          0.000575411   0.000575411   0.000575411   0.000699949   0.000699949   0.000580668   0.000580668   0.000648476   0.000648476   0.000481178   0.000481178  
1550          0.000575411   0.000575411   0.000575411   0.000699949   0.000699949   0.000580668   0.000580668   0.000648476   0.000648476   0.000481178   0.000481178  
1600          0.000575411   0.000575411   0.000575411   0.000699949   0.000699949   0.000580668   0.000580668   0.000648476   0.000648476   0.000481178   0.000481178  
1650          0.000575411   0.000575411   0.000575411   0.000699949   0.000699949   0.000580668   0.000580668   0.000648476   0.000648476   0.000481178   0.000481178  
1700          0.000575411   0.000575411   0.000575411   0.000699949   0.000699949   0.000580668   0.000580668   0.000648476   0.000648476   0.000481178   0.000481178  
1750          0.000575411   0.000575411   0.000575411   0.000699949   0.000699949   0.000580668   0.000580668   0.000648476   0.000648476   0.000481178   0.000481178  
1800          0.000575411   0.000575411   0.000575411   0.000699949   0.000699949   0.000580668   0.000580668   0.000648476   0.000648476   0.000481178   0.000481178  
1850          0.000575411   0.000575411   0.000575411   0.000699949   0.000699949   0.000580668   0.000580668   0.000648476   0.000648476   0.000481178   0.000481178  
1900          0.000575411   0.000575411   0.000575411   0.000699949   0.000699949   0.000580668   0.000580668   0.000648476   0.000648476   0.000481178   0.000481178  
1950          0.000575411   0.000575411   0.000575411   0.000699949   0.000699949   0.000580668   0.000580668   0.000648476   0.000648476   0.000481178   0.000481178  
2000          0.000575411   0.000575411   0.000575411   0.000699949   0.000699949   0.000580668   0.000580668   0.000648476   0.000648476   0.000481178   0.000481178  
2050          0.000575411   0.000575411   0.000575411   0.000699949   0.000699949   0.000580668   0.000580668   0.000648476   0.000648476   0.000481178   0.000481178  
2100          0.000575411   0.000575411   0.000575411   0.000699949   0.000699949   0.000580668   0.000580668   0.000648476   0.000648476   0.000481178   0.000481178  
2150          0.000575411   0.000575411   0.000575411   0.000699949   0.000699949   0.000580668   0.000580668   0.000648476   0.000648476   0.000481178   0.000481178  
2200          0.000575411   0.000575411   0.000575411   0.000699949   0.000699949   0.000580668   0.000580668   0.000648476   0.000648476   0.000481178   0.000481178  
2250          0.000575411   0.000575411   0.000575411   0.000699949   0.000699949   0.000580668   0.000580668   0.000648476   0.000648476   0.000481178   0.000481178  
2300          0.000575411   0.000575411   0.000575411   0.000699949   0.000699949   0.000580668   0.000580668   0.000648476   0.000648476   0.000481178   0.000481178  
2350          0.000575411   0.000575411   0.000575411   0.000699949   0.000699949   0.000580668   0.000580668   0.000648476   0.000648476   0.000481178   0.000481178  
2400          0.000575411   0.000575411   0.000575411   0.000699949   0.000699949   0.000580668   0.000580668   0.000648476   0.000648476   0.000481178   0.000481178  
2450          0.000575411   0.000575411   0.000575411   0.000699949   0.000699949   0.000580668   0.000580668   0.000648476   0.000648476   0.000481178   0.000481178  
2500          0.000575411   0.000575411   0.000575411   0.000699949   0.000699949   0.000580668   0.000580668   0.000648476   0.000648476   0.000481178   0.000481178  
2550          0.000575411   0.000575411   0.000575411   0.000699949   0.000699949   0.000580668   0.000580668   0.000648476   0.000648476   0.000481178   0.000481178  
2600          0.000575411   0.000575411   0.000575411   0.000699949   0.000699949   0.000580668   0.000580668   0.000648476   0.000648476   0.000481178   0.000481178  
2650          0.000575411   0.000575411   0.000575411   0.000699949   0.000699949   0.000580668   0.000580668   0.000648476   0.000648476   0.000481178   0.000481178  
2700          0.000575411   0.000575411   0.000575411   0.000699949   0.000699949   0.000580668   0.000580668   0.000648476   0.000648476   0.000481178   0.000481178  
2750          0.000575411   0.000575411   0.000575411   0.000699949   0.000699949   0.000580668   0.000580668   0.000648476   0.000648476   0.000481178   0.000481178  
2800          0.000575411   0.000575411   0.000575411   0.000699949   0.000699949   0.000580668   0.000580668   0.000648476   0.000648476   0.000481178   0.000481178  
2850          0.000575411   0.000575411   0.000575411   0.000699949   0.000699949   0.000580668   0.000580668   0.000648476   0.000648476   0.000481178   0.000481178  
2900          0.000575411   0.000575411   0.000575411   0.000699949   0.000699949   0.000580668   0.000580668   0.000648476   0.000648476   0.000481178   0.000481178  
2950          0.000575411   0.000575411   0.000575411   0.000699949   0.000699949   0.000580668   0.000580668   0.000648476   0.000648476   0.000481178   0.000481178  
3000          0.000575411   0.000575411   0.000575411   0.000699949   0.000699949   0.000580668   0.000580668   0.000648476   0.000648476   0.000481178   0.000481178  
3050          0.000575411   0.000575411   0.000575411   0.000699949   0.000699949   0.000580668   0.000580668   0.000648476   0.000648476   0.000481178   0.000481178  
3100          0.000575411   0.000575411   0.000575411   0.000699949   0.000699949   0.000580668   0.000580668   0.000648476   0.000648476   0.000481178   0.000481178  
3150          0.000575411   0.000575411   0.000575411   0.000699949   0.000699949   0.000580668   0.000580668   0.000648476   0.000648476   0.000481178   0.000481178  
3200          0.000575411   0.000575411   0.000575411   0.000699949   0.000699949   0.000580668   0.000580668   0.000648476   0.000648476   0.000481178   0.000481178  
3250          0.000575411   0.000575411   0.000575411   0.000699949   0.000699949   0.000580668   0.000580668   0.000648476   0.000648476   0.000481178   0.000481178  
3300          0.000575411   0.000575411   0.000575411   0.000699949   0.000699949   0.000580668   0.000580668   0.000648476   0.000648476   0.000481178   0.000481178  
3350          0.000575411   0.000575411   0.000575411   0.000699949   0.000699949   0.000580668   0.000580668   0.000648476   0.000648476   0.000481178   0.000481178  
3400          0.000575411   0.000575411   0.000575411   0.000699949   0.000699949   0.000580668   0.000580668   0.000648476   0.000648476   0.000481178   0.000481178  
3450          0.000575411   0.000575411   0.000575411   0.000699949   0.000699949   0.000580668   0.000580668   0.000648476   0.000648476   0.000481178   0.000481178  
3500          0.000575411   0.000575411   0.000575411   0.000699949   0.000699949   0.000580668   0.000580668   0.000648476   0.000648476   0.000481178   0.000481178  
3550          0.000575411   0.000575411   0.000575411   0.000699949   0.000699949   0.000580668   0.000580668   0.000648476   0.000648476   0.000481178   0.000481178  
3600          0.000575411   0.000575411   0.000575411   0.000699949   0.000699949   0.000580668   0.000580668   0.000648476   0.000648476   0.000481178   0.000481178  
3650          0.000575411   0.000575411   0.000575411   0.000699949   0.000699949   0.000580668   0.000580668   0.000648476   0.000648476   0.000481178   0.000481178  
3700          0.000575411   0.000575411   0.000575411   0.000699949   0.000699949   0.000580668   0.000580668   0.000648476   0.000648476   0.000481178   0.000481178  
3750          0.000575411   0.000575411   0.000575411   0.000699949   0.000699949   0.000580668   0.000580668   0.000648476   0.000648476   0.000481178   0.000481178  
3800          0.000575411   0.000575411   0.000575411   0.000699949   0.000699949   0.000580668   0.000580668   0.000648476   0.000648476   0.000481178   0.000481178  
3850          0.000575411   0.000575411   0.000575411   0.000699949   0.000699949   0.000580668   0.000580668   0.000648476   0.000648476   0.000481178   0.000481178  
3900          0.000575411   0.000575411   0.000575411   0.000699949   0.000699949   0.000580668   0.000580668   0.000648476   0.000648476   0.000481178   0.000481178  
3950          0.000575411   0.000575411   0.000575411   0.000699949   0.000699949   0.000580668   0.000580668   0.000648476   0.000648476   0.000481178   0.000481178  
4000          0.000575411   0.000575411   0.000575411   0.000699949   0.000699949   0.000580668   0.000580668   0.000648476   0.000648476   0.000481178   0.000481178  
4050          0.000575411   0.000575411   0.000575411   0.000699949   0.000699949   0.000580668   0.000580668   0.000648476   0.000648476   0.000481178   0.000481178  
4100          0.000575411   0.000575411   0.000575411   0.000699949   0.000699949   0.000580668   0.000580668   0.000648476   0.000648476   0.000481178   0.000481178  
4150          0.000575411   0.000575411   0.000575411   0.000699949   0.000699949   0.000580668   0.000580668   0.000648476   0.000648476   0.000481178   0.000481178  
4200          0.000575411   0.000575411   0.000575411   0.000699949   0.000699949   0.000580668   0.000580668   0.000648476   0.000648476   0.000481178   0.000481178  
4250          0.000575411   0.000575411   0.000575411   0.000699949   0.000699949   0.000580668   0.000580668   0.000648476   0.000648476   0.000481178   0.000481178  
4300          0.000575411   0.000575411   0.000575411   0.000699949   0.000699949   0.000580668   0.000580668   0.000648476   0.000648476   0.000481178   0.000481178  
4350          0.000575411   0.000575411   0.000575411   0.000699949   0.000699949   0.000580668   0.000580668   0.000648476   0.000648476   0.000481178   0.000481178  
4400          0.000575411   0.000575411   0.000575411   0.000699949   0.000699949   0.000580668   0.000580668   0.000648476   0.000648476   0.000481178   0.000481178  
4450          0.000575411   0.000575411   0.000575411   0.000699949   0.000699949   0.000580668   0.000580668   0.000648476   0.000648476   0.000481178   0.000481178  
4500          0.000575411   0.000575411   0.000575411   0.000699949   0.000699949   0.000580668   0.000580668   0.000648476   0.000648476   0.000481178   0.000481178  
4550          0.000575411   0.000575411   0.000575411   0.000699949   0.000699949   0.000580668   0.000580668   0.000648476   0.000648476   0.000481178   0.000481178  
4600          0.000575411   0.000575411   0.000575411   0.000699949   0.000699949   0.000580668   0.000580668   0.000648476   0.000648476   0.000481178   0.000481178  
4650          0.000575411   0.000575411   0.000575411   0.000699949   0.000699949   0.000580668   0.000580668   0.000648476   0.000648476   0.000481178   0.000481178  
4700          0.000575411   0.000575411   0.000575411   0.000699949   0.000699949   0.000580668   0.000580668   0.000648476   0.000648476   0.000481178   0.000481178  
4750          0.000575411   0.000575411   0.000575411   0.000699949   0.000699949   0.000580668   0.000580668   0.000648476   0.000648476   0.000481178   0.000481178  
4800          0.000575411   0.000575411   0.000575411   0.000699949   0.000699949   0.000580668   0.000580668   0.000648476   0.000648476   0.000481178   0.000481178  
4850          0.000575411   0.000575411   0.000575411   0.000699949   0.000699949   0.000580668   0.000580668   0.000648476   0.000648476   0.000481178   0.000481178  
4900          0.000575411   0.000575411   0.000575411   0.000699949   0.000699949   0.000580668   0.000580668   0.000648476   0.000648476   0.000481178   0.000481178  
4950          0.000575411   0.000575411   0.000575411   0.000699949   0.000699949   0.000580668   0.000580668   0.000648476   0.000648476   0.000481178   0.000481178  
5000          0.000575411   0.000575411   0.000575411   0.000699949   0.000699949   0.000580668   0.000580668   0.000648476   0.000648476   0.000481178   0.000481178  
