# Probe 0 (0.0015 0.0015 0)
# Probe 1 (0.0015 0.0015 0.002)
# Probe 2 (0.0015 0.0015 0.004)
# Probe 3 (0.0015 0.0015 0.006)
# Probe 4 (0.0015 0.0015 0.008)
# Probe 5 (0.0015 0.0015 0.01)
# Probe 6 (0.0015 0.0015 0.012)
# Probe 7 (0.0015 0.0015 0.014)
# Probe 8 (0.0015 0.0015 0.016)
# Probe 9 (0.0015 0.0015 0.018)
# Probe 10 (0.0015 0.0015 0.02)
# Time        0             1             2             3             4             5             6             7             8             9             10           
50            0.000679562   0.000679562   0.000665209   0.000672082   0.000668875   0.000668314   0.000631225   0.000652704   0.000643018   0.000645685   0.000677338  
100           0.000679562   0.000679562   0.000665209   0.000672082   0.000668875   0.000668314   0.000631225   0.000652704   0.000643018   0.000645685   0.000677338  
150           0.000679562   0.000679562   0.000665209   0.000672082   0.000668875   0.000668314   0.000631225   0.000652704   0.000643018   0.000645685   0.000677338  
200           0.000679562   0.000679562   0.000665209   0.000672082   0.000668875   0.000668314   0.000631225   0.000652704   0.000643018   0.000645685   0.000677338  
250           0.000679562   0.000679562   0.000665209   0.000672082   0.000668875   0.000668314   0.000631225   0.000652704   0.000643018   0.000645685   0.000677338  
300           0.000679562   0.000679562   0.000665209   0.000672082   0.000668875   0.000668314   0.000631225   0.000652704   0.000643018   0.000645685   0.000677338  
350           0.000679562   0.000679562   0.000665209   0.000672082   0.000668875   0.000668314   0.000631225   0.000652704   0.000643018   0.000645685   0.000677338  
400           0.000679562   0.000679562   0.000665209   0.000672082   0.000668875   0.000668314   0.000631225   0.000652704   0.000643018   0.000645685   0.000677338  
450           0.000679562   0.000679562   0.000665209   0.000672082   0.000668875   0.000668314   0.000631225   0.000652704   0.000643018   0.000645685   0.000677338  
500           0.000679562   0.000679562   0.000665209   0.000672082   0.000668875   0.000668314   0.000631225   0.000652704   0.000643018   0.000645685   0.000677338  
550           0.000679562   0.000679562   0.000665209   0.000672082   0.000668875   0.000668314   0.000631225   0.000652704   0.000643018   0.000645685   0.000677338  
600           0.000679562   0.000679562   0.000665209   0.000672082   0.000668875   0.000668314   0.000631225   0.000652704   0.000643018   0.000645685   0.000677338  
650           0.000679562   0.000679562   0.000665209   0.000672082   0.000668875   0.000668314   0.000631225   0.000652704   0.000643018   0.000645685   0.000677338  
700           0.000679562   0.000679562   0.000665209   0.000672082   0.000668875   0.000668314   0.000631225   0.000652704   0.000643018   0.000645685   0.000677338  
750           0.000679562   0.000679562   0.000665209   0.000672082   0.000668875   0.000668314   0.000631225   0.000652704   0.000643018   0.000645685   0.000677338  
800           0.000679562   0.000679562   0.000665209   0.000672082   0.000668875   0.000668314   0.000631225   0.000652704   0.000643018   0.000645685   0.000677338  
850           0.000679562   0.000679562   0.000665209   0.000672082   0.000668875   0.000668314   0.000631225   0.000652704   0.000643018   0.000645685   0.000677338  
900           0.000679562   0.000679562   0.000665209   0.000672082   0.000668875   0.000668314   0.000631225   0.000652704   0.000643018   0.000645685   0.000677338  
950           0.000679562   0.000679562   0.000665209   0.000672082   0.000668875   0.000668314   0.000631225   0.000652704   0.000643018   0.000645685   0.000677338  
1000          0.000679562   0.000679562   0.000665209   0.000672082   0.000668875   0.000668314   0.000631225   0.000652704   0.000643018   0.000645685   0.000677338  
1050          0.000679562   0.000679562   0.000665209   0.000672082   0.000668875   0.000668314   0.000631225   0.000652704   0.000643018   0.000645685   0.000677338  
1100          0.000679562   0.000679562   0.000665209   0.000672082   0.000668875   0.000668314   0.000631225   0.000652704   0.000643018   0.000645685   0.000677338  
1150          0.000679562   0.000679562   0.000665209   0.000672082   0.000668875   0.000668314   0.000631225   0.000652704   0.000643018   0.000645685   0.000677338  
1200          0.000679562   0.000679562   0.000665209   0.000672082   0.000668875   0.000668314   0.000631225   0.000652704   0.000643018   0.000645685   0.000677338  
1250          0.000679562   0.000679562   0.000665209   0.000672082   0.000668875   0.000668314   0.000631225   0.000652704   0.000643018   0.000645685   0.000677338  
1300          0.000679562   0.000679562   0.000665209   0.000672082   0.000668875   0.000668314   0.000631225   0.000652704   0.000643018   0.000645685   0.000677338  
1350          0.000679562   0.000679562   0.000665209   0.000672082   0.000668875   0.000668314   0.000631225   0.000652704   0.000643018   0.000645685   0.000677338  
1400          0.000679562   0.000679562   0.000665209   0.000672082   0.000668875   0.000668314   0.000631225   0.000652704   0.000643018   0.000645685   0.000677338  
1450          0.000679562   0.000679562   0.000665209   0.000672082   0.000668875   0.000668314   0.000631225   0.000652704   0.000643018   0.000645685   0.000677338  
1500          0.000679562   0.000679562   0.000665209   0.000672082   0.000668875   0.000668314   0.000631225   0.000652704   0.000643018   0.000645685   0.000677338  
1550          0.000679562   0.000679562   0.000665209   0.000672082   0.000668875   0.000668314   0.000631225   0.000652704   0.000643018   0.000645685   0.000677338  
1600          0.000679562   0.000679562   0.000665209   0.000672082   0.000668875   0.000668314   0.000631225   0.000652704   0.000643018   0.000645685   0.000677338  
1650          0.000679562   0.000679562   0.000665209   0.000672082   0.000668875   0.000668314   0.000631225   0.000652704   0.000643018   0.000645685   0.000677338  
1700          0.000679562   0.000679562   0.000665209   0.000672082   0.000668875   0.000668314   0.000631225   0.000652704   0.000643018   0.000645685   0.000677338  
1750          0.000679562   0.000679562   0.000665209   0.000672082   0.000668875   0.000668314   0.000631225   0.000652704   0.000643018   0.000645685   0.000677338  
1800          0.000679562   0.000679562   0.000665209   0.000672082   0.000668875   0.000668314   0.000631225   0.000652704   0.000643018   0.000645685   0.000677338  
1850          0.000679562   0.000679562   0.000665209   0.000672082   0.000668875   0.000668314   0.000631225   0.000652704   0.000643018   0.000645685   0.000677338  
1900          0.000679562   0.000679562   0.000665209   0.000672082   0.000668875   0.000668314   0.000631225   0.000652704   0.000643018   0.000645685   0.000677338  
1950          0.000679562   0.000679562   0.000665209   0.000672082   0.000668875   0.000668314   0.000631225   0.000652704   0.000643018   0.000645685   0.000677338  
2000          0.000679562   0.000679562   0.000665209   0.000672082   0.000668875   0.000668314   0.000631225   0.000652704   0.000643018   0.000645685   0.000677338  
2050          0.000679562   0.000679562   0.000665209   0.000672082   0.000668875   0.000668314   0.000631225   0.000652704   0.000643018   0.000645685   0.000677338  
2100          0.000679562   0.000679562   0.000665209   0.000672082   0.000668875   0.000668314   0.000631225   0.000652704   0.000643018   0.000645685   0.000677338  
2150          0.000679562   0.000679562   0.000665209   0.000672082   0.000668875   0.000668314   0.000631225   0.000652704   0.000643018   0.000645685   0.000677338  
2200          0.000679562   0.000679562   0.000665209   0.000672082   0.000668875   0.000668314   0.000631225   0.000652704   0.000643018   0.000645685   0.000677338  
2250          0.000679562   0.000679562   0.000665209   0.000672082   0.000668875   0.000668314   0.000631225   0.000652704   0.000643018   0.000645685   0.000677338  
2300          0.000679562   0.000679562   0.000665209   0.000672082   0.000668875   0.000668314   0.000631225   0.000652704   0.000643018   0.000645685   0.000677338  
2350          0.000679562   0.000679562   0.000665209   0.000672082   0.000668875   0.000668314   0.000631225   0.000652704   0.000643018   0.000645685   0.000677338  
2400          0.000679562   0.000679562   0.000665209   0.000672082   0.000668875   0.000668314   0.000631225   0.000652704   0.000643018   0.000645685   0.000677338  
2450          0.000679562   0.000679562   0.000665209   0.000672082   0.000668875   0.000668314   0.000631225   0.000652704   0.000643018   0.000645685   0.000677338  
2500          0.000679562   0.000679562   0.000665209   0.000672082   0.000668875   0.000668314   0.000631225   0.000652704   0.000643018   0.000645685   0.000677338  
2550          0.000679562   0.000679562   0.000665209   0.000672082   0.000668875   0.000668314   0.000631225   0.000652704   0.000643018   0.000645685   0.000677338  
2600          0.000679562   0.000679562   0.000665209   0.000672082   0.000668875   0.000668314   0.000631225   0.000652704   0.000643018   0.000645685   0.000677338  
2650          0.000679562   0.000679562   0.000665209   0.000672082   0.000668875   0.000668314   0.000631225   0.000652704   0.000643018   0.000645685   0.000677338  
2700          0.000679562   0.000679562   0.000665209   0.000672082   0.000668875   0.000668314   0.000631225   0.000652704   0.000643018   0.000645685   0.000677338  
2750          0.000679562   0.000679562   0.000665209   0.000672082   0.000668875   0.000668314   0.000631225   0.000652704   0.000643018   0.000645685   0.000677338  
2800          0.000679562   0.000679562   0.000665209   0.000672082   0.000668875   0.000668314   0.000631225   0.000652704   0.000643018   0.000645685   0.000677338  
2850          0.000679562   0.000679562   0.000665209   0.000672082   0.000668875   0.000668314   0.000631225   0.000652704   0.000643018   0.000645685   0.000677338  
2900          0.000679562   0.000679562   0.000665209   0.000672082   0.000668875   0.000668314   0.000631225   0.000652704   0.000643018   0.000645685   0.000677338  
2950          0.000679562   0.000679562   0.000665209   0.000672082   0.000668875   0.000668314   0.000631225   0.000652704   0.000643018   0.000645685   0.000677338  
3000          0.000679562   0.000679562   0.000665209   0.000672082   0.000668875   0.000668314   0.000631225   0.000652704   0.000643018   0.000645685   0.000677338  
3050          0.000679562   0.000679562   0.000665209   0.000672082   0.000668875   0.000668314   0.000631225   0.000652704   0.000643018   0.000645685   0.000677338  
3100          0.000679562   0.000679562   0.000665209   0.000672082   0.000668875   0.000668314   0.000631225   0.000652704   0.000643018   0.000645685   0.000677338  
3150          0.000679562   0.000679562   0.000665209   0.000672082   0.000668875   0.000668314   0.000631225   0.000652704   0.000643018   0.000645685   0.000677338  
3200          0.000679562   0.000679562   0.000665209   0.000672082   0.000668875   0.000668314   0.000631225   0.000652704   0.000643018   0.000645685   0.000677338  
3250          0.000679562   0.000679562   0.000665209   0.000672082   0.000668875   0.000668314   0.000631225   0.000652704   0.000643018   0.000645685   0.000677338  
3300          0.000679562   0.000679562   0.000665209   0.000672082   0.000668875   0.000668314   0.000631225   0.000652704   0.000643018   0.000645685   0.000677338  
3350          0.000679562   0.000679562   0.000665209   0.000672082   0.000668875   0.000668314   0.000631225   0.000652704   0.000643018   0.000645685   0.000677338  
3400          0.000679562   0.000679562   0.000665209   0.000672082   0.000668875   0.000668314   0.000631225   0.000652704   0.000643018   0.000645685   0.000677338  
3450          0.000679562   0.000679562   0.000665209   0.000672082   0.000668875   0.000668314   0.000631225   0.000652704   0.000643018   0.000645685   0.000677338  
3500          0.000679562   0.000679562   0.000665209   0.000672082   0.000668875   0.000668314   0.000631225   0.000652704   0.000643018   0.000645685   0.000677338  
3550          0.000679562   0.000679562   0.000665209   0.000672082   0.000668875   0.000668314   0.000631225   0.000652704   0.000643018   0.000645685   0.000677338  
3600          0.000679562   0.000679562   0.000665209   0.000672082   0.000668875   0.000668314   0.000631225   0.000652704   0.000643018   0.000645685   0.000677338  
3650          0.000679562   0.000679562   0.000665209   0.000672082   0.000668875   0.000668314   0.000631225   0.000652704   0.000643018   0.000645685   0.000677338  
3700          0.000679562   0.000679562   0.000665209   0.000672082   0.000668875   0.000668314   0.000631225   0.000652704   0.000643018   0.000645685   0.000677338  
3750          0.000679562   0.000679562   0.000665209   0.000672082   0.000668875   0.000668314   0.000631225   0.000652704   0.000643018   0.000645685   0.000677338  
3800          0.000679562   0.000679562   0.000665209   0.000672082   0.000668875   0.000668314   0.000631225   0.000652704   0.000643018   0.000645685   0.000677338  
3850          0.000679562   0.000679562   0.000665209   0.000672082   0.000668875   0.000668314   0.000631225   0.000652704   0.000643018   0.000645685   0.000677338  
3900          0.000679562   0.000679562   0.000665209   0.000672082   0.000668875   0.000668314   0.000631225   0.000652704   0.000643018   0.000645685   0.000677338  
3950          0.000679562   0.000679562   0.000665209   0.000672082   0.000668875   0.000668314   0.000631225   0.000652704   0.000643018   0.000645685   0.000677338  
4000          0.000679562   0.000679562   0.000665209   0.000672082   0.000668875   0.000668314   0.000631225   0.000652704   0.000643018   0.000645685   0.000677338  
4050          0.000679562   0.000679562   0.000665209   0.000672082   0.000668875   0.000668314   0.000631225   0.000652704   0.000643018   0.000645685   0.000677338  
4100          0.000679562   0.000679562   0.000665209   0.000672082   0.000668875   0.000668314   0.000631225   0.000652704   0.000643018   0.000645685   0.000677338  
4150          0.000679562   0.000679562   0.000665209   0.000672082   0.000668875   0.000668314   0.000631225   0.000652704   0.000643018   0.000645685   0.000677338  
4200          0.000679562   0.000679562   0.000665209   0.000672082   0.000668875   0.000668314   0.000631225   0.000652704   0.000643018   0.000645685   0.000677338  
4250          0.000679562   0.000679562   0.000665209   0.000672082   0.000668875   0.000668314   0.000631225   0.000652704   0.000643018   0.000645685   0.000677338  
4300          0.000679562   0.000679562   0.000665209   0.000672082   0.000668875   0.000668314   0.000631225   0.000652704   0.000643018   0.000645685   0.000677338  
4350          0.000679562   0.000679562   0.000665209   0.000672082   0.000668875   0.000668314   0.000631225   0.000652704   0.000643018   0.000645685   0.000677338  
4400          0.000679562   0.000679562   0.000665209   0.000672082   0.000668875   0.000668314   0.000631225   0.000652704   0.000643018   0.000645685   0.000677338  
4450          0.000679562   0.000679562   0.000665209   0.000672082   0.000668875   0.000668314   0.000631225   0.000652704   0.000643018   0.000645685   0.000677338  
4500          0.000679562   0.000679562   0.000665209   0.000672082   0.000668875   0.000668314   0.000631225   0.000652704   0.000643018   0.000645685   0.000677338  
4550          0.000679562   0.000679562   0.000665209   0.000672082   0.000668875   0.000668314   0.000631225   0.000652704   0.000643018   0.000645685   0.000677338  
4600          0.000679562   0.000679562   0.000665209   0.000672082   0.000668875   0.000668314   0.000631225   0.000652704   0.000643018   0.000645685   0.000677338  
4650          0.000679562   0.000679562   0.000665209   0.000672082   0.000668875   0.000668314   0.000631225   0.000652704   0.000643018   0.000645685   0.000677338  
4700          0.000679562   0.000679562   0.000665209   0.000672082   0.000668875   0.000668314   0.000631225   0.000652704   0.000643018   0.000645685   0.000677338  
4750          0.000679562   0.000679562   0.000665209   0.000672082   0.000668875   0.000668314   0.000631225   0.000652704   0.000643018   0.000645685   0.000677338  
4800          0.000679562   0.000679562   0.000665209   0.000672082   0.000668875   0.000668314   0.000631225   0.000652704   0.000643018   0.000645685   0.000677338  
4850          0.000679562   0.000679562   0.000665209   0.000672082   0.000668875   0.000668314   0.000631225   0.000652704   0.000643018   0.000645685   0.000677338  
4900          0.000679562   0.000679562   0.000665209   0.000672082   0.000668875   0.000668314   0.000631225   0.000652704   0.000643018   0.000645685   0.000677338  
4950          0.000679562   0.000679562   0.000665209   0.000672082   0.000668875   0.000668314   0.000631225   0.000652704   0.000643018   0.000645685   0.000677338  
5000          0.000679562   0.000679562   0.000665209   0.000672082   0.000668875   0.000668314   0.000631225   0.000652704   0.000643018   0.000645685   0.000677338  
