# Probe 0 (0.0015 0.0015 0)
# Probe 1 (0.0015 0.0015 0.002)
# Probe 2 (0.0015 0.0015 0.004)
# Probe 3 (0.0015 0.0015 0.006)
# Probe 4 (0.0015 0.0015 0.008)
# Probe 5 (0.0015 0.0015 0.01)
# Probe 6 (0.0015 0.0015 0.012)
# Probe 7 (0.0015 0.0015 0.014)
# Probe 8 (0.0015 0.0015 0.016)
# Probe 9 (0.0015 0.0015 0.018)
# Probe 10 (0.0015 0.0015 0.02)
# Time        0             1             2             3             4             5             6             7             8             9             10           
50            (0.0305132 0.0305132 12852.9) (0.00824589 0.00824589 11653.3) (0.0279839 0.0279839 9283.36) (0.00498311 0.00498311 6529.04) (-0.00195454 -0.00195454 4208.43) (-0.0017143 -0.0017143 2716.04) (-0.00190168 -0.00190168 2049.52) (-0.00520957 -0.00520957 2077.37) (-0.005381 -0.005381 2683.27) (-0.0172727 -0.0172727 3764.7) (0.00429651 0.00429651 5141.6)
100           (0.0507855 0.0507855 9301.04) (0.0507967 0.0507967 8959.81) (0.0379621 0.0379621 8234.26) (0.0208405 0.0208405 7199.03) (-0.00194926 -0.00194926 5998.96) (-0.0188293 -0.0188293 4859.48) (-0.0249325 -0.0249325 3998.95) (-0.0226326 -0.0226326 3539.85) (-0.0181321 -0.0181321 3486.07) (-0.00710441 -0.00710441 3749.67) (0.00413528 0.00413528 4163.98)
150           (-0.0818208 -0.0818208 7890.24) (-0.0702996 -0.0702996 7735.1) (-0.0520829 -0.0520829 7405.43) (-0.031635 -0.031635 6920.75) (-0.00592372 -0.00592372 6313.51) (0.0197662 0.0197662 5646.51) (0.0382636 0.0382636 5008.05) (0.0445577 0.0445577 4490.78) (0.0363793 0.0363793 4159.31) (0.0176828 0.0176828 4026.56) (0.00406506 0.00406506 4044.16)
200           (0.0220539 0.0220539 7166.05) (0.00626384 0.00626384 7080.77) (0.0108923 0.0108923 6899.68) (0.00515093 0.00515093 6629.38) (0.000853688 0.000853688 6279.45) (-0.00349672 -0.00349672 5870.06) (-0.00730433 -0.00730433 5433.41) (-0.00940734 -0.00940734 5012.05) (-0.0106656 -0.0106656 4651.57) (-0.00980271 -0.00980271 4389.86) (-0.00748019 -0.00748019 4246.55)
250           (-0.00516385 -0.00516385 6737.18) (-0.00429377 -0.00429377 6684.68) (-0.00563151 -0.00563151 6572.07) (-0.00548841 -0.00548841 6402.76) (-0.00473397 -0.00473397 6179.49) (-0.00327918 -0.00327918 5909.71) (-0.00116299 -0.00116299 5606.53) (0.00133685 0.00133685 5289.59) (0.00357748 0.00357748 4984.66) (0.00340675 0.00340675 4723.1) (-0.000123019 -0.000123019 4542.68)
300           (-0.00273112 -0.00273112 6458.3) (-0.00229572 -0.00229572 6423.13) (-0.00324521 -0.00324521 6347.58) (-0.00331338 -0.00331338 6233.41) (-0.0031243 -0.0031243 6081.36) (-0.00262602 -0.00262602 5894.6) (-0.00178826 -0.00178826 5679.38) (-0.000617392 -0.000617392 5446.08) (0.000806805 0.000806805 5209.85) (0.00127452 0.00127452 4992.78) (0.00177895 0.00177895 4829.49)
350           (-0.000758264 -0.000758264 6265.86) (-0.000847998 -0.000847998 6241.18) (-0.00157962 -0.00157962 6188.19) (-0.00174355 -0.00174355 6107.95) (-0.0018112 -0.0018112 6000.61) (-0.00175189 -0.00175189 5867.83) (-0.001532 -0.001532 5713.1) (-0.00110772 -0.00110772 5542.76) (-0.000413768 -0.000413768 5366.48) (-0.000150267 -0.000150266 5199.6) (0.0010142 0.0010142 5068.96)
400           (2.93952e-05 2.93952e-05 6128.77) (-0.000232358 -0.000232358 6111.07) (-0.000792153 -0.000792154 6073.08) (-0.000961274 -0.000961274 6015.53) (-0.00109418 -0.00109418 5938.45) (-0.00117213 -0.00117213 5842.87) (-0.00116958 -0.00116958 5731.05) (-0.00104427 -0.00104427 5607.24) (-0.000717017 -0.000717017 5478.01) (-0.00064324 -0.00064324 5354.16) (0.000364881 0.000364881 5255.36)
450           (-0.0165952 -0.0165952 6029.72) (-0.00959087 -0.00959087 6016.87) (-0.00918219 -0.00918219 5989.36) (-0.0083168 -0.0083168 5947.73) (-0.00689322 -0.00689322 5892) (-0.00486539 -0.00486539 5822.9) (-0.00223646 -0.00223646 5741.98) (0.000948527 0.000948527 5652.28) (0.00459025 0.00459025 5558.42) (0.00835148 0.00835148 5468.04) (0.0212908 0.0212908 5395.35)
500           (-0.00559544 -0.00559544 5957.81) (0.0033112 0.0033112 5948.47) (0.00333701 0.00333701 5928.51) (0.0019812 0.0019812 5898.34) (-0.000207789 -0.000207789 5857.98) (-0.00240841 -0.00240841 5807.97) (-0.00338949 -0.00338949 5749.44) (-0.00195362 -0.00195362 5684.6) (0.00224357 0.00224357 5616.73) (0.00853479 0.00853479 5551.3) (0.0241526 0.0241526 5498.46)
550           (-0.00486573 -0.00486573 5905.57) (0.00240378 0.00240378 5898.78) (0.0015959 0.0015959 5884.31) (0.000101906 0.000101906 5862.45) (-0.00131505 -0.00131505 5833.23) (-0.001895 -0.001895 5797.07) (-0.00112594 -0.00112594 5754.77) (0.00105816 0.00105816 5707.97) (0.00423161 0.00423161 5659.01) (0.00758839 0.00758839 5611.82) (0.0185417 0.0185417 5573.66)
600           (-0.00347148 -0.00347148 5867.66) (0.0018158 0.0018158 5862.74) (0.00113907 0.00113907 5852.26) (-1.24754e-05 -1.24754e-05 5836.44) (-0.00103642 -0.00103642 5815.32) (-0.00138295 -0.00138295 5789.2) (-0.000732266 -0.000732266 5758.65) (0.000897843 0.000897843 5724.91) (0.00316505 0.00316505 5689.65) (0.00550665 0.00550665 5655.67) (0.0133939 0.0133939 5628.18)
650           (-0.00255297 -0.00255297 5840.22) (0.0013293 0.0013293 5836.65) (0.000835878 0.000835878 5829.08) (1.78724e-08 1.79063e-08 5817.64) (-0.000738176 -0.000738176 5802.39) (-0.000981751 -0.000981751 5783.54) (-0.000503903 -0.000503903 5761.5) (0.000677163 0.000677163 5737.19) (0.00231129 0.00231129 5711.81) (0.00399413 0.00399413 5687.37) (0.00970977 0.00970977 5667.59)
700           (-0.0211695 -0.0211695 5820.38) (-0.00521382 -0.00521382 5817.83) (-0.00526684 -0.00526684 5812.33) (-0.00271983 -0.00271983 5804.1) (-0.00106529 -0.00106529 5793.09) (0.00158392 0.00158392 5779.5) (0.0048917 0.0048917 5763.6) (0.0080679 0.0080679 5746.09) (0.0124293 0.0124293 5727.84) (0.0145156 0.0145156 5710.23) (0.0304351 0.0304351 5696.02)
750           (-0.0338855 -0.0338855 5806.03) (-0.00623273 -0.00623273 5804.31) (-0.00679147 -0.00679147 5800.18) (0.00542928 0.00542928 5794.32) (0.0111615 0.0111615 5786.34) (0.0174448 0.0174448 5776.55) (0.0206393 0.0206393 5765.09) (0.0196809 0.0196809 5752.48) (0.0169389 0.0169389 5739.36) (0.0120391 0.0120391 5726.7) (0.0267476 0.0267476 5716.49)
800           (0.0160214 0.0160214 5795.67) (0.00961107 0.00961107 5794.72) (-0.00593975 -0.00593975 5791.48) (-0.000662617 -0.000662616 5787.41) (-0.00238408 -0.00238408 5781.59) (0.000907143 0.000907143 5774.55) (0.0031539 0.0031539 5766.27) (0.0060102 0.0060102 5757.16) (0.00174536 0.00174536 5747.72) (0.0144023 0.0144023 5738.57) (-0.0144063 -0.0144063 5731.23)
850           (0.00509033 0.00509033 5788.33) (0.0145584 0.0145584 5787.71) (-0.00154009 -0.00154009 5785.21) (0.00762973 0.00762973 5782.34) (-0.00103723 -0.00103723 5778.05) (-0.000745025 -0.000745025 5772.99) (-0.00478942 -0.00478942 5766.96) (-0.00714374 -0.00714374 5760.4) (-0.00749573 -0.00749573 5753.58) (-0.00428149 -0.00428149 5747.03) (-0.00579495 -0.00579495 5741.74)
900           (0.0387277 0.0387277 5783.28) (0.0500921 0.0500921 5782.63) (0.044323 0.044323 5781.04) (0.0421655 0.0421655 5778.78) (0.0350883 0.0350883 5775.71) (0.0258971 0.0258971 5771.97) (0.0125585 0.0125585 5767.53) (-0.00391647 -0.00391647 5762.74) (-0.0197464 -0.0197464 5757.77) (-0.043381 -0.043381 5753) (-0.019112 -0.019112 5749.15)
950           (0.00579971 0.00579971 5779.63) (0.00937444 0.00937444 5779) (0.0158187 0.0158187 5777.96) (0.0128894 0.0128894 5776.18) (0.0151736 0.0151736 5773.95) (0.0122008 0.0122008 5771.14) (0.0105041 0.0105041 5767.87) (0.00633957 0.00633957 5764.34) (0.0022171 0.0022171 5760.71) (-0.000877755 -0.000877755 5757.25) (0.0102391 0.0102391 5754.47)
1000          (0.00766035 0.00766035 5777) (-0.00584526 -0.00584526 5776.32) (0.019834 0.019834 5775.86) (0.0115057 0.0115057 5774.36) (0.0111415 0.0111415 5772.7) (0.0109891 0.0109891 5770.59) (0.0119924 0.0119924 5768.2) (-0.00230063 -0.00230063 5765.39) (0.0130788 0.0130788 5763.03) (-0.0112414 -0.0112414 5760.16) (-0.00280335 -0.00280335 5758.36)
1050          (0.00273501 0.00273501 5775.12) (-0.00285528 -0.00285528 5774.81) (0.00771006 0.00771006 5774.13) (0.00561807 0.00561807 5773.14) (0.00750594 0.00750594 5771.83) (0.00756684 0.00756684 5770.22) (0.00770048 0.00770048 5768.34) (0.00965894 0.00965894 5766.36) (-0.000414058 -0.000414058 5764.34) (0.0125706 0.0125706 5762.45) (-0.00876325 -0.00876325 5760.98)
1100          (-0.0199052 -0.0199052 5773.78) (-0.0249567 -0.0249567 5773.53) (-0.00495868 -0.00495868 5773) (-0.0125245 -0.0125245 5772.21) (-0.00594262 -0.00594262 5771.16) (0.00176366 0.00176366 5769.97) (-0.000839662 -0.000839663 5768.45) (0.013225 0.013225 5766.95) (0.00540802 0.00540802 5765.46) (0.0289288 0.0289288 5763.99) (0.0128611 0.0128611 5762.96)
1150          (0.00472419 0.00472419 5772.96) (0.00867199 0.00867199 5772.74) (0.00816985 0.00816985 5772.26) (0.00979197 0.00979197 5771.6) (0.00903551 0.00903551 5770.74) (0.00730382 0.00730382 5769.7) (0.00638432 0.00638432 5768.5) (0.00393577 0.00393577 5767.27) (0.000557293 0.000557293 5766.06) (-0.000466292 -0.000466292 5764.95) (0.00155233 0.00155233 5764.16)
1200          (0.00629844 0.00629844 5772.3) (0.00688219 0.00688219 5772.11) (0.00627095 0.00627095 5771.72) (0.00598698 0.00598698 5771.16) (0.00541056 0.00541056 5770.45) (0.00433825 0.00433825 5769.6) (0.00314077 0.00314077 5768.58) (0.00223523 0.00223523 5767.6) (-2.10469e-05 -2.10469e-05 5766.62) (-0.00247556 -0.00247556 5765.77) (-0.00423176 -0.00423176 5765.11)
1250          (0.00106415 0.00106415 5771.92) (0.00206827 0.00206827 5771.73) (0.000916149 0.000916149 5771.38) (0.00135891 0.00135891 5770.87) (0.0023801 0.0023801 5770.22) (0.00273811 0.00273811 5769.47) (0.00225824 0.00225824 5768.58) (0.00382112 0.00382112 5767.73) (0.00304824 0.00304824 5766.93) (-0.00195274 -0.00195274 5766.25) (0.00403276 0.00403276 5765.76)
1300          (0.000344675 0.000344676 5771.81) (0.00279394 0.00279394 5771.62) (-0.000341533 -0.000341533 5771.27) (0.000303129 0.000303129 5770.77) (0.0037271 0.0037271 5770.14) (0.00591215 0.00591214 5769.41) (0.00419432 0.00419432 5768.55) (0.0104787 0.0104787 5767.74) (0.0101996 0.0101996 5766.99) (-0.00363843 -0.00363843 5766.38) (0.0179996 0.0179996 5765.99)
1350          (0.000344675 0.000344676 5771.81) (0.00279394 0.00279394 5771.62) (-0.000341533 -0.000341533 5771.27) (0.000303129 0.000303129 5770.77) (0.0037271 0.0037271 5770.14) (0.00591215 0.00591214 5769.41) (0.00419432 0.00419432 5768.55) (0.0104787 0.0104787 5767.74) (0.0101996 0.0101996 5766.99) (-0.00363843 -0.00363843 5766.38) (0.0179996 0.0179996 5765.99)
1400          (0.000344675 0.000344676 5771.81) (0.00279394 0.00279394 5771.62) (-0.000341533 -0.000341533 5771.27) (0.000303129 0.000303129 5770.77) (0.0037271 0.0037271 5770.14) (0.00591215 0.00591214 5769.41) (0.00419432 0.00419432 5768.55) (0.0104787 0.0104787 5767.74) (0.0101996 0.0101996 5766.99) (-0.00363843 -0.00363843 5766.38) (0.0179996 0.0179996 5765.99)
1450          (0.000344675 0.000344676 5771.81) (0.00279394 0.00279394 5771.62) (-0.000341533 -0.000341533 5771.27) (0.000303129 0.000303129 5770.77) (0.0037271 0.0037271 5770.14) (0.00591215 0.00591214 5769.41) (0.00419432 0.00419432 5768.55) (0.0104787 0.0104787 5767.74) (0.0101996 0.0101996 5766.99) (-0.00363843 -0.00363843 5766.38) (0.0179996 0.0179996 5765.99)
1500          (0.000344675 0.000344676 5771.81) (0.00279394 0.00279394 5771.62) (-0.000341533 -0.000341533 5771.27) (0.000303129 0.000303129 5770.77) (0.0037271 0.0037271 5770.14) (0.00591215 0.00591214 5769.41) (0.00419432 0.00419432 5768.55) (0.0104787 0.0104787 5767.74) (0.0101996 0.0101996 5766.99) (-0.00363843 -0.00363843 5766.38) (0.0179996 0.0179996 5765.99)
1550          (0.000344675 0.000344676 5771.81) (0.00279394 0.00279394 5771.62) (-0.000341533 -0.000341533 5771.27) (0.000303129 0.000303129 5770.77) (0.0037271 0.0037271 5770.14) (0.00591215 0.00591214 5769.41) (0.00419432 0.00419432 5768.55) (0.0104787 0.0104787 5767.74) (0.0101996 0.0101996 5766.99) (-0.00363843 -0.00363843 5766.38) (0.0179996 0.0179996 5765.99)
1600          (0.000344675 0.000344676 5771.81) (0.00279394 0.00279394 5771.62) (-0.000341533 -0.000341533 5771.27) (0.000303129 0.000303129 5770.77) (0.0037271 0.0037271 5770.14) (0.00591215 0.00591214 5769.41) (0.00419432 0.00419432 5768.55) (0.0104787 0.0104787 5767.74) (0.0101996 0.0101996 5766.99) (-0.00363843 -0.00363843 5766.38) (0.0179996 0.0179996 5765.99)
1650          (0.000344675 0.000344676 5771.81) (0.00279394 0.00279394 5771.62) (-0.000341533 -0.000341533 5771.27) (0.000303129 0.000303129 5770.77) (0.0037271 0.0037271 5770.14) (0.00591215 0.00591214 5769.41) (0.00419432 0.00419432 5768.55) (0.0104787 0.0104787 5767.74) (0.0101996 0.0101996 5766.99) (-0.00363843 -0.00363843 5766.38) (0.0179996 0.0179996 5765.99)
1700          (0.000344675 0.000344676 5771.81) (0.00279394 0.00279394 5771.62) (-0.000341533 -0.000341533 5771.27) (0.000303129 0.000303129 5770.77) (0.0037271 0.0037271 5770.14) (0.00591215 0.00591214 5769.41) (0.00419432 0.00419432 5768.55) (0.0104787 0.0104787 5767.74) (0.0101996 0.0101996 5766.99) (-0.00363843 -0.00363843 5766.38) (0.0179996 0.0179996 5765.99)
1750          (0.000344675 0.000344676 5771.81) (0.00279394 0.00279394 5771.62) (-0.000341533 -0.000341533 5771.27) (0.000303129 0.000303129 5770.77) (0.0037271 0.0037271 5770.14) (0.00591215 0.00591214 5769.41) (0.00419432 0.00419432 5768.55) (0.0104787 0.0104787 5767.74) (0.0101996 0.0101996 5766.99) (-0.00363843 -0.00363843 5766.38) (0.0179996 0.0179996 5765.99)
1800          (0.000344675 0.000344676 5771.81) (0.00279394 0.00279394 5771.62) (-0.000341533 -0.000341533 5771.27) (0.000303129 0.000303129 5770.77) (0.0037271 0.0037271 5770.14) (0.00591215 0.00591214 5769.41) (0.00419432 0.00419432 5768.55) (0.0104787 0.0104787 5767.74) (0.0101996 0.0101996 5766.99) (-0.00363843 -0.00363843 5766.38) (0.0179996 0.0179996 5765.99)
1850          (0.000344675 0.000344676 5771.81) (0.00279394 0.00279394 5771.62) (-0.000341533 -0.000341533 5771.27) (0.000303129 0.000303129 5770.77) (0.0037271 0.0037271 5770.14) (0.00591215 0.00591214 5769.41) (0.00419432 0.00419432 5768.55) (0.0104787 0.0104787 5767.74) (0.0101996 0.0101996 5766.99) (-0.00363843 -0.00363843 5766.38) (0.0179996 0.0179996 5765.99)
1900          (0.000344675 0.000344676 5771.81) (0.00279394 0.00279394 5771.62) (-0.000341533 -0.000341533 5771.27) (0.000303129 0.000303129 5770.77) (0.0037271 0.0037271 5770.14) (0.00591215 0.00591214 5769.41) (0.00419432 0.00419432 5768.55) (0.0104787 0.0104787 5767.74) (0.0101996 0.0101996 5766.99) (-0.00363843 -0.00363843 5766.38) (0.0179996 0.0179996 5765.99)
1950          (0.000344675 0.000344676 5771.81) (0.00279394 0.00279394 5771.62) (-0.000341533 -0.000341533 5771.27) (0.000303129 0.000303129 5770.77) (0.0037271 0.0037271 5770.14) (0.00591215 0.00591214 5769.41) (0.00419432 0.00419432 5768.55) (0.0104787 0.0104787 5767.74) (0.0101996 0.0101996 5766.99) (-0.00363843 -0.00363843 5766.38) (0.0179996 0.0179996 5765.99)
2000          (0.000344675 0.000344676 5771.81) (0.00279394 0.00279394 5771.62) (-0.000341533 -0.000341533 5771.27) (0.000303129 0.000303129 5770.77) (0.0037271 0.0037271 5770.14) (0.00591215 0.00591214 5769.41) (0.00419432 0.00419432 5768.55) (0.0104787 0.0104787 5767.74) (0.0101996 0.0101996 5766.99) (-0.00363843 -0.00363843 5766.38) (0.0179996 0.0179996 5765.99)
2050          (0.000344675 0.000344676 5771.81) (0.00279394 0.00279394 5771.62) (-0.000341533 -0.000341533 5771.27) (0.000303129 0.000303129 5770.77) (0.0037271 0.0037271 5770.14) (0.00591215 0.00591214 5769.41) (0.00419432 0.00419432 5768.55) (0.0104787 0.0104787 5767.74) (0.0101996 0.0101996 5766.99) (-0.00363843 -0.00363843 5766.38) (0.0179996 0.0179996 5765.99)
2100          (0.000344675 0.000344676 5771.81) (0.00279394 0.00279394 5771.62) (-0.000341533 -0.000341533 5771.27) (0.000303129 0.000303129 5770.77) (0.0037271 0.0037271 5770.14) (0.00591215 0.00591214 5769.41) (0.00419432 0.00419432 5768.55) (0.0104787 0.0104787 5767.74) (0.0101996 0.0101996 5766.99) (-0.00363843 -0.00363843 5766.38) (0.0179996 0.0179996 5765.99)
2150          (0.000344675 0.000344676 5771.81) (0.00279394 0.00279394 5771.62) (-0.000341533 -0.000341533 5771.27) (0.000303129 0.000303129 5770.77) (0.0037271 0.0037271 5770.14) (0.00591215 0.00591214 5769.41) (0.00419432 0.00419432 5768.55) (0.0104787 0.0104787 5767.74) (0.0101996 0.0101996 5766.99) (-0.00363843 -0.00363843 5766.38) (0.0179996 0.0179996 5765.99)
2200          (0.000344675 0.000344676 5771.81) (0.00279394 0.00279394 5771.62) (-0.000341533 -0.000341533 5771.27) (0.000303129 0.000303129 5770.77) (0.0037271 0.0037271 5770.14) (0.00591215 0.00591214 5769.41) (0.00419432 0.00419432 5768.55) (0.0104787 0.0104787 5767.74) (0.0101996 0.0101996 5766.99) (-0.00363843 -0.00363843 5766.38) (0.0179996 0.0179996 5765.99)
2250          (0.000344675 0.000344676 5771.81) (0.00279394 0.00279394 5771.62) (-0.000341533 -0.000341533 5771.27) (0.000303129 0.000303129 5770.77) (0.0037271 0.0037271 5770.14) (0.00591215 0.00591214 5769.41) (0.00419432 0.00419432 5768.55) (0.0104787 0.0104787 5767.74) (0.0101996 0.0101996 5766.99) (-0.00363843 -0.00363843 5766.38) (0.0179996 0.0179996 5765.99)
2300          (0.000344675 0.000344676 5771.81) (0.00279394 0.00279394 5771.62) (-0.000341533 -0.000341533 5771.27) (0.000303129 0.000303129 5770.77) (0.0037271 0.0037271 5770.14) (0.00591215 0.00591214 5769.41) (0.00419432 0.00419432 5768.55) (0.0104787 0.0104787 5767.74) (0.0101996 0.0101996 5766.99) (-0.00363843 -0.00363843 5766.38) (0.0179996 0.0179996 5765.99)
2350          (0.000344675 0.000344676 5771.81) (0.00279394 0.00279394 5771.62) (-0.000341533 -0.000341533 5771.27) (0.000303129 0.000303129 5770.77) (0.0037271 0.0037271 5770.14) (0.00591215 0.00591214 5769.41) (0.00419432 0.00419432 5768.55) (0.0104787 0.0104787 5767.74) (0.0101996 0.0101996 5766.99) (-0.00363843 -0.00363843 5766.38) (0.0179996 0.0179996 5765.99)
2400          (0.000344675 0.000344676 5771.81) (0.00279394 0.00279394 5771.62) (-0.000341533 -0.000341533 5771.27) (0.000303129 0.000303129 5770.77) (0.0037271 0.0037271 5770.14) (0.00591215 0.00591214 5769.41) (0.00419432 0.00419432 5768.55) (0.0104787 0.0104787 5767.74) (0.0101996 0.0101996 5766.99) (-0.00363843 -0.00363843 5766.38) (0.0179996 0.0179996 5765.99)
2450          (0.000344675 0.000344676 5771.81) (0.00279394 0.00279394 5771.62) (-0.000341533 -0.000341533 5771.27) (0.000303129 0.000303129 5770.77) (0.0037271 0.0037271 5770.14) (0.00591215 0.00591214 5769.41) (0.00419432 0.00419432 5768.55) (0.0104787 0.0104787 5767.74) (0.0101996 0.0101996 5766.99) (-0.00363843 -0.00363843 5766.38) (0.0179996 0.0179996 5765.99)
2500          (0.000344675 0.000344676 5771.81) (0.00279394 0.00279394 5771.62) (-0.000341533 -0.000341533 5771.27) (0.000303129 0.000303129 5770.77) (0.0037271 0.0037271 5770.14) (0.00591215 0.00591214 5769.41) (0.00419432 0.00419432 5768.55) (0.0104787 0.0104787 5767.74) (0.0101996 0.0101996 5766.99) (-0.00363843 -0.00363843 5766.38) (0.0179996 0.0179996 5765.99)
2550          (0.000344675 0.000344676 5771.81) (0.00279394 0.00279394 5771.62) (-0.000341533 -0.000341533 5771.27) (0.000303129 0.000303129 5770.77) (0.0037271 0.0037271 5770.14) (0.00591215 0.00591214 5769.41) (0.00419432 0.00419432 5768.55) (0.0104787 0.0104787 5767.74) (0.0101996 0.0101996 5766.99) (-0.00363843 -0.00363843 5766.38) (0.0179996 0.0179996 5765.99)
2600          (0.000344675 0.000344676 5771.81) (0.00279394 0.00279394 5771.62) (-0.000341533 -0.000341533 5771.27) (0.000303129 0.000303129 5770.77) (0.0037271 0.0037271 5770.14) (0.00591215 0.00591214 5769.41) (0.00419432 0.00419432 5768.55) (0.0104787 0.0104787 5767.74) (0.0101996 0.0101996 5766.99) (-0.00363843 -0.00363843 5766.38) (0.0179996 0.0179996 5765.99)
2650          (0.000344675 0.000344676 5771.81) (0.00279394 0.00279394 5771.62) (-0.000341533 -0.000341533 5771.27) (0.000303129 0.000303129 5770.77) (0.0037271 0.0037271 5770.14) (0.00591215 0.00591214 5769.41) (0.00419432 0.00419432 5768.55) (0.0104787 0.0104787 5767.74) (0.0101996 0.0101996 5766.99) (-0.00363843 -0.00363843 5766.38) (0.0179996 0.0179996 5765.99)
2700          (0.000344675 0.000344676 5771.81) (0.00279394 0.00279394 5771.62) (-0.000341533 -0.000341533 5771.27) (0.000303129 0.000303129 5770.77) (0.0037271 0.0037271 5770.14) (0.00591215 0.00591214 5769.41) (0.00419432 0.00419432 5768.55) (0.0104787 0.0104787 5767.74) (0.0101996 0.0101996 5766.99) (-0.00363843 -0.00363843 5766.38) (0.0179996 0.0179996 5765.99)
2750          (0.000344675 0.000344676 5771.81) (0.00279394 0.00279394 5771.62) (-0.000341533 -0.000341533 5771.27) (0.000303129 0.000303129 5770.77) (0.0037271 0.0037271 5770.14) (0.00591215 0.00591214 5769.41) (0.00419432 0.00419432 5768.55) (0.0104787 0.0104787 5767.74) (0.0101996 0.0101996 5766.99) (-0.00363843 -0.00363843 5766.38) (0.0179996 0.0179996 5765.99)
2800          (0.000344675 0.000344676 5771.81) (0.00279394 0.00279394 5771.62) (-0.000341533 -0.000341533 5771.27) (0.000303129 0.000303129 5770.77) (0.0037271 0.0037271 5770.14) (0.00591215 0.00591214 5769.41) (0.00419432 0.00419432 5768.55) (0.0104787 0.0104787 5767.74) (0.0101996 0.0101996 5766.99) (-0.00363843 -0.00363843 5766.38) (0.0179996 0.0179996 5765.99)
2850          (0.000344675 0.000344676 5771.81) (0.00279394 0.00279394 5771.62) (-0.000341533 -0.000341533 5771.27) (0.000303129 0.000303129 5770.77) (0.0037271 0.0037271 5770.14) (0.00591215 0.00591214 5769.41) (0.00419432 0.00419432 5768.55) (0.0104787 0.0104787 5767.74) (0.0101996 0.0101996 5766.99) (-0.00363843 -0.00363843 5766.38) (0.0179996 0.0179996 5765.99)
2900          (0.000344675 0.000344676 5771.81) (0.00279394 0.00279394 5771.62) (-0.000341533 -0.000341533 5771.27) (0.000303129 0.000303129 5770.77) (0.0037271 0.0037271 5770.14) (0.00591215 0.00591214 5769.41) (0.00419432 0.00419432 5768.55) (0.0104787 0.0104787 5767.74) (0.0101996 0.0101996 5766.99) (-0.00363843 -0.00363843 5766.38) (0.0179996 0.0179996 5765.99)
2950          (0.000344675 0.000344676 5771.81) (0.00279394 0.00279394 5771.62) (-0.000341533 -0.000341533 5771.27) (0.000303129 0.000303129 5770.77) (0.0037271 0.0037271 5770.14) (0.00591215 0.00591214 5769.41) (0.00419432 0.00419432 5768.55) (0.0104787 0.0104787 5767.74) (0.0101996 0.0101996 5766.99) (-0.00363843 -0.00363843 5766.38) (0.0179996 0.0179996 5765.99)
3000          (0.000344675 0.000344676 5771.81) (0.00279394 0.00279394 5771.62) (-0.000341533 -0.000341533 5771.27) (0.000303129 0.000303129 5770.77) (0.0037271 0.0037271 5770.14) (0.00591215 0.00591214 5769.41) (0.00419432 0.00419432 5768.55) (0.0104787 0.0104787 5767.74) (0.0101996 0.0101996 5766.99) (-0.00363843 -0.00363843 5766.38) (0.0179996 0.0179996 5765.99)
3050          (0.000344675 0.000344676 5771.81) (0.00279394 0.00279394 5771.62) (-0.000341533 -0.000341533 5771.27) (0.000303129 0.000303129 5770.77) (0.0037271 0.0037271 5770.14) (0.00591215 0.00591214 5769.41) (0.00419432 0.00419432 5768.55) (0.0104787 0.0104787 5767.74) (0.0101996 0.0101996 5766.99) (-0.00363843 -0.00363843 5766.38) (0.0179996 0.0179996 5765.99)
3100          (0.000344675 0.000344676 5771.81) (0.00279394 0.00279394 5771.62) (-0.000341533 -0.000341533 5771.27) (0.000303129 0.000303129 5770.77) (0.0037271 0.0037271 5770.14) (0.00591215 0.00591214 5769.41) (0.00419432 0.00419432 5768.55) (0.0104787 0.0104787 5767.74) (0.0101996 0.0101996 5766.99) (-0.00363843 -0.00363843 5766.38) (0.0179996 0.0179996 5765.99)
3150          (0.000344675 0.000344676 5771.81) (0.00279394 0.00279394 5771.62) (-0.000341533 -0.000341533 5771.27) (0.000303129 0.000303129 5770.77) (0.0037271 0.0037271 5770.14) (0.00591215 0.00591214 5769.41) (0.00419432 0.00419432 5768.55) (0.0104787 0.0104787 5767.74) (0.0101996 0.0101996 5766.99) (-0.00363843 -0.00363843 5766.38) (0.0179996 0.0179996 5765.99)
3200          (0.000344675 0.000344676 5771.81) (0.00279394 0.00279394 5771.62) (-0.000341533 -0.000341533 5771.27) (0.000303129 0.000303129 5770.77) (0.0037271 0.0037271 5770.14) (0.00591215 0.00591214 5769.41) (0.00419432 0.00419432 5768.55) (0.0104787 0.0104787 5767.74) (0.0101996 0.0101996 5766.99) (-0.00363843 -0.00363843 5766.38) (0.0179996 0.0179996 5765.99)
3250          (0.000344675 0.000344676 5771.81) (0.00279394 0.00279394 5771.62) (-0.000341533 -0.000341533 5771.27) (0.000303129 0.000303129 5770.77) (0.0037271 0.0037271 5770.14) (0.00591215 0.00591214 5769.41) (0.00419432 0.00419432 5768.55) (0.0104787 0.0104787 5767.74) (0.0101996 0.0101996 5766.99) (-0.00363843 -0.00363843 5766.38) (0.0179996 0.0179996 5765.99)
3300          (0.000344675 0.000344676 5771.81) (0.00279394 0.00279394 5771.62) (-0.000341533 -0.000341533 5771.27) (0.000303129 0.000303129 5770.77) (0.0037271 0.0037271 5770.14) (0.00591215 0.00591214 5769.41) (0.00419432 0.00419432 5768.55) (0.0104787 0.0104787 5767.74) (0.0101996 0.0101996 5766.99) (-0.00363843 -0.00363843 5766.38) (0.0179996 0.0179996 5765.99)
3350          (0.000344675 0.000344676 5771.81) (0.00279394 0.00279394 5771.62) (-0.000341533 -0.000341533 5771.27) (0.000303129 0.000303129 5770.77) (0.0037271 0.0037271 5770.14) (0.00591215 0.00591214 5769.41) (0.00419432 0.00419432 5768.55) (0.0104787 0.0104787 5767.74) (0.0101996 0.0101996 5766.99) (-0.00363843 -0.00363843 5766.38) (0.0179996 0.0179996 5765.99)
3400          (0.000344675 0.000344676 5771.81) (0.00279394 0.00279394 5771.62) (-0.000341533 -0.000341533 5771.27) (0.000303129 0.000303129 5770.77) (0.0037271 0.0037271 5770.14) (0.00591215 0.00591214 5769.41) (0.00419432 0.00419432 5768.55) (0.0104787 0.0104787 5767.74) (0.0101996 0.0101996 5766.99) (-0.00363843 -0.00363843 5766.38) (0.0179996 0.0179996 5765.99)
3450          (0.000344675 0.000344676 5771.81) (0.00279394 0.00279394 5771.62) (-0.000341533 -0.000341533 5771.27) (0.000303129 0.000303129 5770.77) (0.0037271 0.0037271 5770.14) (0.00591215 0.00591214 5769.41) (0.00419432 0.00419432 5768.55) (0.0104787 0.0104787 5767.74) (0.0101996 0.0101996 5766.99) (-0.00363843 -0.00363843 5766.38) (0.0179996 0.0179996 5765.99)
3500          (0.000344675 0.000344676 5771.81) (0.00279394 0.00279394 5771.62) (-0.000341533 -0.000341533 5771.27) (0.000303129 0.000303129 5770.77) (0.0037271 0.0037271 5770.14) (0.00591215 0.00591214 5769.41) (0.00419432 0.00419432 5768.55) (0.0104787 0.0104787 5767.74) (0.0101996 0.0101996 5766.99) (-0.00363843 -0.00363843 5766.38) (0.0179996 0.0179996 5765.99)
3550          (0.000344675 0.000344676 5771.81) (0.00279394 0.00279394 5771.62) (-0.000341533 -0.000341533 5771.27) (0.000303129 0.000303129 5770.77) (0.0037271 0.0037271 5770.14) (0.00591215 0.00591214 5769.41) (0.00419432 0.00419432 5768.55) (0.0104787 0.0104787 5767.74) (0.0101996 0.0101996 5766.99) (-0.00363843 -0.00363843 5766.38) (0.0179996 0.0179996 5765.99)
3600          (0.000344675 0.000344676 5771.81) (0.00279394 0.00279394 5771.62) (-0.000341533 -0.000341533 5771.27) (0.000303129 0.000303129 5770.77) (0.0037271 0.0037271 5770.14) (0.00591215 0.00591214 5769.41) (0.00419432 0.00419432 5768.55) (0.0104787 0.0104787 5767.74) (0.0101996 0.0101996 5766.99) (-0.00363843 -0.00363843 5766.38) (0.0179996 0.0179996 5765.99)
3650          (0.000344675 0.000344676 5771.81) (0.00279394 0.00279394 5771.62) (-0.000341533 -0.000341533 5771.27) (0.000303129 0.000303129 5770.77) (0.0037271 0.0037271 5770.14) (0.00591215 0.00591214 5769.41) (0.00419432 0.00419432 5768.55) (0.0104787 0.0104787 5767.74) (0.0101996 0.0101996 5766.99) (-0.00363843 -0.00363843 5766.38) (0.0179996 0.0179996 5765.99)
3700          (0.000344675 0.000344676 5771.81) (0.00279394 0.00279394 5771.62) (-0.000341533 -0.000341533 5771.27) (0.000303129 0.000303129 5770.77) (0.0037271 0.0037271 5770.14) (0.00591215 0.00591214 5769.41) (0.00419432 0.00419432 5768.55) (0.0104787 0.0104787 5767.74) (0.0101996 0.0101996 5766.99) (-0.00363843 -0.00363843 5766.38) (0.0179996 0.0179996 5765.99)
3750          (0.000344675 0.000344676 5771.81) (0.00279394 0.00279394 5771.62) (-0.000341533 -0.000341533 5771.27) (0.000303129 0.000303129 5770.77) (0.0037271 0.0037271 5770.14) (0.00591215 0.00591214 5769.41) (0.00419432 0.00419432 5768.55) (0.0104787 0.0104787 5767.74) (0.0101996 0.0101996 5766.99) (-0.00363843 -0.00363843 5766.38) (0.0179996 0.0179996 5765.99)
3800          (0.000344675 0.000344676 5771.81) (0.00279394 0.00279394 5771.62) (-0.000341533 -0.000341533 5771.27) (0.000303129 0.000303129 5770.77) (0.0037271 0.0037271 5770.14) (0.00591215 0.00591214 5769.41) (0.00419432 0.00419432 5768.55) (0.0104787 0.0104787 5767.74) (0.0101996 0.0101996 5766.99) (-0.00363843 -0.00363843 5766.38) (0.0179996 0.0179996 5765.99)
3850          (0.000344675 0.000344676 5771.81) (0.00279394 0.00279394 5771.62) (-0.000341533 -0.000341533 5771.27) (0.000303129 0.000303129 5770.77) (0.0037271 0.0037271 5770.14) (0.00591215 0.00591214 5769.41) (0.00419432 0.00419432 5768.55) (0.0104787 0.0104787 5767.74) (0.0101996 0.0101996 5766.99) (-0.00363843 -0.00363843 5766.38) (0.0179996 0.0179996 5765.99)
3900          (0.000344675 0.000344676 5771.81) (0.00279394 0.00279394 5771.62) (-0.000341533 -0.000341533 5771.27) (0.000303129 0.000303129 5770.77) (0.0037271 0.0037271 5770.14) (0.00591215 0.00591214 5769.41) (0.00419432 0.00419432 5768.55) (0.0104787 0.0104787 5767.74) (0.0101996 0.0101996 5766.99) (-0.00363843 -0.00363843 5766.38) (0.0179996 0.0179996 5765.99)
3950          (0.000344675 0.000344676 5771.81) (0.00279394 0.00279394 5771.62) (-0.000341533 -0.000341533 5771.27) (0.000303129 0.000303129 5770.77) (0.0037271 0.0037271 5770.14) (0.00591215 0.00591214 5769.41) (0.00419432 0.00419432 5768.55) (0.0104787 0.0104787 5767.74) (0.0101996 0.0101996 5766.99) (-0.00363843 -0.00363843 5766.38) (0.0179996 0.0179996 5765.99)
4000          (0.000344675 0.000344676 5771.81) (0.00279394 0.00279394 5771.62) (-0.000341533 -0.000341533 5771.27) (0.000303129 0.000303129 5770.77) (0.0037271 0.0037271 5770.14) (0.00591215 0.00591214 5769.41) (0.00419432 0.00419432 5768.55) (0.0104787 0.0104787 5767.74) (0.0101996 0.0101996 5766.99) (-0.00363843 -0.00363843 5766.38) (0.0179996 0.0179996 5765.99)