# Probe 0 (0.0015 0.0015 0)
# Probe 1 (0.0015 0.0015 0.002)
# Probe 2 (0.0015 0.0015 0.004)
# Probe 3 (0.0015 0.0015 0.006)
# Probe 4 (0.0015 0.0015 0.008)
# Probe 5 (0.0015 0.0015 0.01)
# Probe 6 (0.0015 0.0015 0.012)
# Probe 7 (0.0015 0.0015 0.014)
# Probe 8 (0.0015 0.0015 0.016)
# Probe 9 (0.0015 0.0015 0.018)
# Probe 10 (0.0015 0.0015 0.02)
# Time        0             1             2             3             4             5             6             7             8             9             10           
50            (2.46832e-13 -6.34158e-13 -6.03913e-11) (-3.02072e-12 1.6558e-11 3.32624e-11) (1.22578e-11 1.74105e-11 -1.13394e-11) (-7.42558e-13 4.7751e-12 -1.8868e-11) (-2.19048e-11 1.20013e-12 -8.60528e-12) (6.03193e-13 3.74261e-11 -1.17794e-10) (-1.43965e-11 -1.74202e-11 -8.72706e-11) (3.28344e-12 2.27288e-13 -1.01715e-10) (2.19027e-12 1.51846e-11 -1.75686e-10) (-5.89456e-12 3.08801e-11 -2.32644e-10) (-3.47026e-12 1.56834e-11 -2.39505e-10)
100           (5.56374e-13 -1.91562e-11 -1.18523e-12) (-1.80581e-11 5.60101e-12 2.6768e-11) (1.08091e-13 -2.69522e-12 -9.94766e-11) (-1.7062e-12 -2.15832e-11 -1.63425e-10) (-2.24541e-11 1.73714e-11 -1.10801e-10) (-1.79817e-11 1.74139e-11 -1.45294e-10) (-3.42244e-12 1.60229e-11 -1.89962e-10) (-1.88891e-12 1.44829e-12 -3.44087e-10) (-5.42649e-11 1.77059e-11 -2.65124e-10) (-1.22699e-11 -3.08694e-11 -3.08484e-10) (-1.55891e-12 1.76699e-11 -3.13576e-10)
150           (1.66609e-11 1.44663e-11 -2.66702e-11) (-1.45571e-11 -1.53315e-11 -8.06386e-11) (1.43163e-11 2.10635e-12 -1.19437e-10) (1.85417e-11 2.76186e-12 -1.58546e-10) (1.87786e-11 -1.81876e-11 -2.71416e-10) (4.34558e-12 3.32611e-12 -1.76397e-10) (-8.10295e-13 3.34685e-11 -3.15695e-10) (-1.70604e-11 6.57443e-13 -3.60926e-10) (-1.2229e-11 -1.46427e-11 -5.0543e-10) (3.48601e-11 1.89908e-11 -4.19768e-10) (-1.73322e-11 1.85508e-11 -5.13311e-10)
200           (-1.24287e-11 1.67912e-11 4.31181e-11) (-1.68468e-11 -2.88678e-13 -2.91772e-11) (3.1814e-11 -1.63174e-11 -7.57146e-11) (3.58739e-12 5.21621e-11 -1.36911e-10) (3.17146e-12 1.13592e-11 -1.1366e-10) (-1.60555e-11 4.38152e-12 -5.26477e-11) (3.56268e-11 -1.45282e-11 -3.78558e-11) (-3.69493e-11 -3.50119e-11 -1.11386e-10) (-3.22073e-11 -1.87176e-11 -5.09047e-11) (3.39672e-11 1.53011e-11 -1.11686e-10) (-2.03557e-11 -1.1835e-12 -2.34592e-10)
250           (-1.74543e-12 1.38503e-11 3.66218e-11) (-3.62861e-11 1.53469e-11 -3.18185e-11) (2.38247e-13 -3.26872e-11 3.15119e-11) (-2.219e-11 -1.91881e-11 -5.53343e-12) (1.45298e-11 -1.40087e-11 -1.45932e-10) (-1.80265e-11 -1.6616e-11 -2.13089e-10) (1.9382e-11 1.80607e-11 -1.86271e-10) (1.89891e-11 -1.65469e-11 -9.38158e-11) (-3.71436e-11 -1.60073e-11 -1.68596e-10) (-3.57125e-11 -3.02743e-11 -2.10246e-10) (-1.74483e-11 9.63722e-13 -1.61766e-10)
300           (1.46647e-11 -1.64799e-11 -5.93178e-13) (-1.86267e-11 8.58716e-14 -4.77793e-11) (1.74846e-11 -4.36316e-12 -8.82987e-12) (-1.69668e-11 1.15956e-12 -8.52481e-11) (-1.48221e-11 1.05979e-13 -2.84473e-10) (-3.35976e-11 3.7375e-12 -2.34841e-10) (2.27146e-11 1.81217e-11 -3.08096e-10) (1.6635e-11 1.36223e-11 -2.41967e-10) (-1.41255e-11 -1.84404e-11 -4.10292e-10) (-2.53601e-11 -3.5716e-11 -3.35666e-10) (-1.6429e-12 -3.41982e-12 -4.36119e-10)
350           (-1.5124e-11 -3.54376e-11 3.11898e-11) (-2.22927e-11 -1.43416e-11 -1.13663e-11) (-1.38521e-11 -1.87954e-11 -1.37415e-11) (6.05965e-13 1.52938e-11 -1.26465e-10) (1.92804e-11 -2.92953e-12 -1.89034e-10) (-3.40401e-11 -1.86725e-12 -2.25731e-10) (-1.38486e-11 -1.50547e-12 -2.56515e-10) (-1.02651e-12 -1.27834e-12 -2.32462e-10) (4.47486e-13 1.63347e-12 -2.77056e-10) (-2.01888e-11 1.84512e-11 -3.18133e-10) (-8.31008e-13 1.04751e-12 -3.1993e-10)
400           (-1.49237e-11 -3.32321e-11 -2.76195e-11) (1.69253e-12 -1.5695e-11 -5.16427e-11) (2.29835e-11 -3.65766e-11 1.36196e-11) (-3.29194e-11 -1.97406e-11 -1.12654e-10) (1.76897e-11 -2.05366e-12 -5.86783e-11) (2.52395e-13 1.23747e-12 -6.93711e-11) (2.35172e-11 -1.4029e-12 -1.19702e-10) (1.88763e-11 -5.39898e-11 -1.75014e-10) (3.747e-11 -1.52862e-11 -2.56758e-10) (-1.85848e-11 -1.54476e-11 -3.79963e-10) (-1.82781e-11 -1.36937e-12 -2.3412e-10)
450           (-1.06127e-11 -3.38452e-11 2.86357e-11) (2.93621e-12 -2.27922e-11 6.34196e-11) (5.16115e-11 1.79171e-13 -3.25917e-11) (-2.14703e-12 -3.94934e-12 1.09298e-10) (2.27833e-12 -5.22018e-14 -2.61736e-11) (1.98451e-11 -2.76544e-12 -1.11091e-10) (-1.47231e-11 3.23496e-11 -2.18059e-10) (-1.43109e-12 -3.6385e-13 -3.79792e-10) (-3.4356e-11 2.42765e-12 -3.21722e-10) (-1.65254e-11 -1.4401e-11 -3.17773e-10) (-3.6245e-11 -1.62562e-11 -3.921e-10)
500           (1.77925e-11 -3.02962e-11 6.86224e-12) (3.6296e-11 -3.82452e-11 -7.76865e-11) (8.43582e-13 4.08221e-11 -2.75685e-11) (-1.79957e-11 -1.53211e-11 -1.86833e-11) (-1.96586e-11 1.16918e-12 -1.03797e-10) (2.09041e-11 -1.7727e-11 -1.17095e-10) (1.55403e-12 1.52391e-11 -9.10037e-11) (3.08696e-11 -1.40527e-11 -7.56684e-11) (2.16519e-11 -6.20019e-12 -2.0737e-10) (4.54057e-12 -2.22742e-12 -2.07825e-10) (-1.63563e-11 1.26768e-12 -1.64786e-10)
550           (1.14271e-12 -2.33743e-12 3.70835e-11) (-2.2022e-11 -1.12156e-11 7.29763e-11) (2.17733e-11 2.32044e-11 -6.17158e-12) (3.72884e-12 -2.72483e-13 -1.59805e-10) (2.04955e-13 3.68952e-11 -1.26443e-10) (1.6333e-11 -3.12843e-11 -1.03325e-10) (1.99414e-11 4.82555e-12 -2.10092e-10) (3.87822e-13 1.50368e-11 -2.31291e-10) (1.20784e-12 -1.95965e-11 -2.23691e-10) (1.30299e-12 3.48346e-11 -3.34213e-10) (3.63355e-11 -2.07631e-12 -4.1313e-10)
600           (-5.11324e-11 3.07478e-11 8.82264e-13) (1.71234e-11 1.39254e-13 -4.54953e-11) (-2.12546e-11 -1.73818e-12 -5.97895e-11) (-1.83321e-11 -2.22905e-11 -1.59089e-10) (-4.98556e-11 8.41005e-13 -2.1229e-10) (1.4607e-11 -1.08028e-11 -6.65701e-11) (3.99605e-12 1.56136e-11 -2.76828e-10) (1.71724e-11 -3.15449e-12 -2.62461e-10) (-1.7886e-11 -1.43756e-12 -3.76042e-10) (-1.76104e-11 1.0137e-12 -1.66478e-10) (3.81694e-13 1.89164e-11 -3.06997e-10)
650           (7.74993e-13 -3.22772e-11 2.88163e-12) (2.19373e-13 1.84242e-11 2.39341e-11) (1.93537e-11 1.06905e-11 -5.03737e-11) (-3.07049e-11 2.22946e-12 -2.00818e-10) (-2.98097e-12 1.65122e-11 -3.31144e-10) (4.88543e-11 1.88242e-11 -2.87861e-10) (1.59644e-11 4.48866e-12 -2.77415e-10) (2.23313e-12 3.72963e-12 -3.84843e-10) (-1.52172e-11 -3.32207e-11 -4.1037e-10) (2.99409e-12 -5.2831e-11 -5.23319e-10) (-1.76167e-11 -1.94986e-11 -5.35192e-10)
700           (1.58811e-14 3.36595e-11 6.73357e-13) (-1.90708e-12 1.94565e-11 -1.21158e-10) (2.33044e-13 -4.18755e-12 -1.00239e-10) (-1.56515e-11 -8.36154e-13 3.07775e-11) (-1.9466e-11 2.9438e-11 -2.82124e-11) (1.73403e-12 -3.33053e-11 -1.11028e-10) (-3.80038e-11 3.0152e-11 -1.57977e-10) (-8.57058e-13 7.9112e-13 -2.65627e-10) (3.13726e-11 -2.11902e-12 -1.4897e-10) (2.94041e-12 -1.1924e-11 -1.62636e-10) (1.96705e-11 -1.81515e-11 -1.73207e-10)
750           (2.37e-13 -1.82843e-11 -3.65871e-11) (1.92904e-12 -2.18567e-12 -1.38174e-12) (-1.66164e-11 -1.54772e-11 2.45106e-11) (-3.57971e-11 -1.66561e-11 -1.95433e-10) (2.04539e-11 1.64457e-11 -1.46141e-10) (2.21178e-11 -4.05205e-12 -2.10568e-10) (-1.84975e-11 1.41817e-11 -2.71592e-10) (1.9784e-11 -1.75519e-11 -3.18693e-10) (4.73057e-12 -3.59996e-11 -3.212e-10) (-1.32929e-11 1.28447e-11 -3.99958e-10) (2.28182e-13 1.81465e-11 -4.01329e-10)
800           (-1.73525e-12 -2.73981e-11 -1.62246e-12) (-1.63128e-11 1.01302e-13 -4.99131e-11) (-1.73208e-11 1.2889e-11 -1.80669e-11) (-3.34486e-12 -3.96505e-12 -7.54671e-11) (1.70192e-11 1.85239e-11 -2.15379e-10) (-1.31365e-11 3.69099e-12 -3.26733e-10) (-1.0665e-12 -1.45623e-11 -1.25222e-10) (-1.75199e-11 1.00389e-12 -1.31786e-10) (-1.65227e-11 2.94204e-11 -1.63133e-10) (-3.3574e-11 -5.21598e-11 -1.56791e-10) (-1.68097e-11 -1.84135e-11 -1.4844e-10)
850           (1.70478e-12 1.69715e-11 3.18514e-11) (-2.32391e-12 2.63337e-12 -1.03923e-10) (-3.67972e-11 -1.69874e-11 -1.17553e-10) (-3.75098e-12 -9.79772e-13 -2.33497e-10) (-2.051e-11 -1.72175e-11 -1.67822e-10) (-1.30587e-11 -2.41371e-11 -1.40997e-10) (3.2987e-11 -2.56012e-12 -1.75471e-10) (-3.20765e-11 -1.84916e-11 -2.65921e-10) (4.21042e-12 -5.11115e-11 -2.96444e-10) (2.75285e-11 -2.40928e-12 -1.60933e-10) (1.72404e-11 -1.88605e-11 -1.85342e-10)
900           (-1.10804e-13 -2.86463e-13 3.1859e-11) (-1.80165e-11 3.53436e-11 -9.34497e-12) (1.64821e-11 -1.96858e-11 -2.20829e-11) (-9.53269e-13 -5.2142e-12 -5.22709e-11) (-1.92843e-11 -1.81434e-11 -1.19924e-10) (3.19279e-12 1.64021e-11 -9.32292e-11) (1.69099e-11 -3.77652e-12 -1.3796e-10) (-2.3666e-11 -3.14771e-11 -2.15646e-10) (-1.2125e-11 -2.35094e-11 -1.93739e-10) (5.2577e-11 3.27387e-11 -1.67333e-10) (-1.70937e-11 -1.7803e-11 -1.93764e-10)
950           (-1.68111e-11 1.75184e-11 -3.72326e-12) (-1.70442e-11 1.80908e-11 -5.65104e-11) (2.99244e-11 -5.42698e-11 4.93373e-12) (-1.70829e-11 2.9702e-12 1.1051e-10) (3.4239e-11 -1.87465e-11 1.71793e-10) (-1.84197e-11 -1.39324e-11 -9.79014e-12) (1.93722e-11 1.82701e-11 1.51637e-11) (1.78405e-11 5.66571e-13 1.29055e-11) (-3.64274e-11 1.4911e-11 -6.44941e-11) (-1.40346e-11 -1.04746e-12 -9.49331e-11) (-3.17018e-11 1.22798e-12 -1.16189e-10)
1000          (2.55034e-12 3.51038e-12 -1.04551e-10) (-1.45438e-11 1.62481e-11 -8.93053e-11) (3.45339e-11 -3.9923e-11 -8.56499e-11) (-9.00069e-13 1.91714e-11 -2.15943e-10) (2.8423e-11 -7.52472e-13 -2.79998e-10) (3.77682e-11 4.02807e-12 -3.99771e-10) (8.94215e-13 -3.23784e-11 -4.25973e-10) (-2.59341e-12 3.63919e-11 -5.18729e-10) (-3.35572e-11 3.22078e-11 -5.2905e-10) (-3.46337e-11 1.87694e-11 -4.87252e-10) (-1.93998e-11 9.04903e-13 -5.62774e-10)
1050          (2.08135e-11 1.80985e-11 -6.52435e-11) (1.78245e-12 1.86753e-11 -6.68742e-11) (-3.39175e-11 1.97393e-11 -3.51383e-13) (1.43658e-12 2.06622e-11 -1.0939e-10) (-1.76623e-11 -3.48319e-11 -1.29508e-10) (-3.49381e-11 1.60602e-11 -5.85967e-11) (-2.85736e-12 1.81657e-11 -1.41068e-10) (1.40623e-11 1.52463e-11 -1.51928e-10) (1.4348e-12 2.18561e-11 -2.06084e-10) (-2.98738e-12 6.76429e-13 -1.94465e-10) (3.37793e-11 -1.90814e-11 -1.98404e-10)
1100          (1.46492e-11 -2.4002e-12 -3.63779e-11) (-1.4458e-11 -3.75472e-11 -7.63834e-11) (3.38816e-11 -2.19652e-11 -4.28723e-11) (-1.46349e-11 1.56342e-11 -3.02695e-11) (4.72463e-13 2.97295e-12 -2.67602e-11) (2.03844e-11 -3.11503e-11 7.84413e-11) (-1.85116e-11 -2.69842e-12 -1.31332e-10) (2.14853e-12 4.33333e-12 -1.39551e-10) (1.66599e-11 3.10615e-11 -9.7588e-11) (-1.35299e-11 1.47242e-11 -1.2999e-10) (-1.00605e-12 -1.67157e-11 -2.08832e-10)
1150          (-1.55476e-11 -3.1731e-12 -6.32734e-11) (4.46258e-13 1.68416e-12 -3.38587e-11) (-1.40174e-12 1.57944e-11 -3.29128e-11) (1.99531e-12 1.71341e-12 -4.50783e-11) (-2.76836e-11 -1.3957e-12 -1.12785e-10) (4.52574e-12 3.42288e-11 -1.11464e-10) (5.73802e-11 -1.65895e-11 -1.47299e-10) (3.38939e-11 -3.17253e-12 -1.53889e-10) (4.00385e-12 -5.55398e-12 -2.56933e-10) (-2.56373e-12 -4.85722e-12 -1.98642e-10) (3.65742e-11 -2.05724e-11 -2.29334e-10)
1200          (-1.4554e-11 -1.56515e-11 1.33877e-15) (1.80456e-12 1.55047e-11 -4.82256e-11) (9.16152e-13 1.27382e-11 -1.22936e-10) (-2.65391e-12 -3.44544e-13 -1.55765e-10) (3.13402e-11 2.26838e-12 -2.15144e-10) (2.03051e-11 1.9341e-12 -3.33684e-10) (1.80944e-11 -1.86699e-11 -2.58506e-10) (1.13034e-12 -1.06831e-12 -2.67424e-10) (-2.02829e-12 3.64843e-12 -3.52036e-10) (5.46269e-12 -1.37611e-11 -3.2429e-10) (-9.09632e-13 2.03419e-11 -3.60142e-10)
1250          (1.69847e-11 1.73138e-11 -2.65554e-11) (-1.09807e-12 -1.95712e-11 3.182e-11) (-1.41178e-11 -1.55391e-11 -5.07837e-11) (1.69812e-11 1.65554e-13 -9.23391e-11) (7.74398e-13 2.12759e-11 -2.03439e-10) (1.8312e-11 -3.72319e-11 -2.46954e-10) (8.43335e-13 6.27197e-12 -1.98227e-10) (1.86607e-12 1.37488e-12 -2.65678e-10) (1.65149e-11 1.7019e-11 -2.39299e-10) (-2.54538e-12 -1.65206e-11 -2.05961e-10) (-2.17735e-12 -2.78389e-12 -3.36641e-10)
1300          (-2.83021e-12 -1.68354e-11 -2.42283e-13) (-4.30268e-13 -2.11158e-11 1.00717e-12) (6.13403e-11 -3.76223e-11 -1.05783e-10) (-3.40599e-11 -1.75653e-11 5.181e-12) (2.00494e-11 1.95095e-11 -2.5862e-10) (2.08217e-11 1.701e-11 -1.61053e-10) (1.20729e-12 -1.799e-12 -2.64009e-10) (1.73363e-11 1.33095e-12 -2.42762e-10) (-1.5416e-11 -1.55733e-11 -1.53628e-10) (-2.89107e-12 1.617e-12 -2.16486e-10) (3.07915e-13 -1.64911e-11 -1.96063e-10)
1350          (-7.87649e-13 2.4437e-12 4.0357e-12) (-2.19052e-11 -4.23583e-11 5.96409e-11) (1.55727e-11 -2.39331e-11 -3.47622e-11) (-1.38955e-11 1.55406e-11 -7.70048e-13) (-3.71034e-12 1.70489e-11 -5.74012e-11) (1.50769e-11 1.60507e-11 -7.22465e-11) (3.45116e-11 -1.24865e-13 -1.04425e-10) (1.62458e-11 -3.33304e-11 -1.36977e-11) (3.36638e-11 -1.78335e-11 9.05336e-12) (2.01942e-11 -5.88181e-13 -2.79024e-11) (-1.93232e-11 -2.00229e-11 -5.11795e-11)
1400          (1.84477e-11 1.41301e-11 2.07116e-12) (-1.27499e-12 5.41924e-11 2.10313e-11) (9.37195e-13 -3.02471e-12 -4.80381e-11) (-4.92439e-11 -1.69408e-11 2.1192e-11) (5.48721e-13 1.90758e-12 -4.31395e-12) (-1.81434e-11 1.95732e-13 -9.23595e-11) (1.66802e-11 3.0483e-11 -6.39368e-11) (3.51619e-11 3.49926e-11 -3.85449e-11) (3.44316e-11 2.03054e-11 1.58863e-11) (-2.22035e-11 1.07828e-11 1.3791e-11) (-3.48712e-11 1.67303e-11 -7.48368e-11)
1450          (1.19822e-12 2.27197e-11 1.58321e-12) (-2.18452e-11 1.10324e-12 -4.17272e-11) (1.42542e-11 -1.69009e-11 -3.93107e-11) (1.8728e-12 1.27902e-12 -8.15153e-12) (-1.62074e-11 -4.32646e-12 -1.17537e-10) (1.69496e-11 1.73114e-12 -2.55252e-10) (-1.91703e-11 -1.31616e-12 -2.27201e-10) (-1.83421e-11 1.87262e-11 -2.58532e-10) (-4.04017e-12 -2.03955e-11 -2.53432e-10) (-3.9739e-12 -3.55713e-11 -2.745e-10) (-1.95409e-11 -1.65678e-11 -3.62985e-10)
1500          (1.69877e-11 3.47673e-11 -3.64942e-11) (2.96564e-11 1.74018e-12 1.85502e-11) (-2.03283e-11 2.1993e-11 -7.83038e-11) (-4.10778e-11 3.37991e-12 -6.51819e-11) (-1.69298e-11 -3.4154e-11 -1.39731e-10) (-3.81953e-11 -3.37871e-11 -2.53567e-10) (-1.48353e-12 -3.2878e-12 -3.26783e-10) (2.16066e-12 -3.40393e-11 -5.73792e-10) (1.59035e-11 2.06632e-11 -4.08059e-10) (2.07071e-11 1.85294e-11 -5.62065e-10) (-1.71656e-11 3.80641e-12 -5.614e-10)
1550          (9.92901e-13 1.62006e-11 -6.66217e-11) (2.39148e-12 5.14773e-11 -8.82876e-11) (1.31636e-11 -1.5831e-11 -1.57188e-10) (1.89751e-11 -3.93199e-11 -2.44523e-10) (-1.55787e-11 -8.81263e-13 -2.69479e-10) (2.27463e-12 3.23597e-11 -2.38893e-10) (3.57919e-11 1.43087e-11 -3.69463e-10) (8.49376e-13 -1.91594e-11 -4.45114e-10) (1.98769e-12 2.02167e-11 -3.61363e-10) (-1.27621e-12 1.5568e-11 -4.28467e-10) (1.60343e-11 2.0004e-11 -4.54134e-10)
1600          (-2.1159e-12 -3.0629e-11 3.61264e-11) (-9.8396e-13 -1.59948e-12 3.36208e-11) (-4.65259e-13 3.62055e-11 -3.36258e-11) (1.48769e-11 -3.67949e-11 -5.39785e-11) (1.8067e-11 -2.77233e-13 -1.70071e-10) (-1.96789e-11 -1.94397e-11 -7.00181e-11) (-1.47715e-11 -5.47252e-11 -1.78115e-10) (-2.56299e-12 1.7579e-11 -2.1362e-10) (-1.24421e-13 1.02866e-12 -2.65797e-10) (-1.73515e-11 -1.15566e-12 -2.06005e-10) (1.47306e-12 2.24522e-11 -4.43184e-10)
1650          (-3.27758e-11 -3.20703e-11 4.08426e-11) (-1.6542e-11 -6.30578e-12 -3.13686e-11) (-5.87036e-12 1.53157e-11 -2.19612e-11) (1.1676e-11 -1.66312e-12 -9.11333e-11) (-2.0564e-11 1.49907e-11 -2.64641e-12) (6.2318e-12 1.36448e-11 -5.576e-11) (6.87465e-13 -2.03435e-11 -2.35046e-12) (-1.65153e-11 -1.67871e-11 -7.8256e-11) (4.12262e-13 -3.33978e-11 -9.39681e-11) (-4.86518e-12 2.28251e-13 -8.84374e-11) (-1.81135e-11 -1.89835e-11 -1.17803e-10)
1700          (-1.58394e-11 1.68685e-11 -3.02299e-11) (-1.47742e-11 2.33937e-12 -7.26602e-11) (-3.15055e-11 2.27603e-12 -1.90713e-10) (-1.51101e-11 1.68491e-11 -1.31606e-10) (1.72927e-11 -1.66573e-11 -2.06135e-10) (3.55842e-11 1.56482e-11 -1.98866e-10) (1.31185e-11 3.7804e-12 -2.18979e-10) (1.63313e-11 3.34495e-11 -2.57169e-10) (-3.28675e-11 -2.07398e-11 -2.78206e-10) (3.46182e-11 -1.89779e-11 -2.85919e-10) (-1.60596e-11 2.13325e-11 -2.27064e-10)
1750          (1.55724e-11 1.61868e-11 3.09171e-11) (2.14555e-11 -2.07539e-12 -7.82111e-11) (-3.77631e-11 -1.88275e-11 2.39245e-11) (1.49966e-11 1.59963e-11 1.86432e-11) (1.94173e-11 6.61819e-13 2.4652e-11) (3.74576e-11 3.66579e-11 -1.02533e-10) (1.44863e-11 1.7886e-12 -2.64327e-10) (-3.58713e-11 -1.5889e-11 -2.36707e-10) (3.32541e-12 9.37108e-13 -3.2585e-10) (1.5396e-11 1.25668e-11 -4.01038e-10) (-7.2696e-13 2.14601e-11 -4.17544e-10)
1800          (1.99086e-12 2.6522e-11 -2.99446e-11) (-1.88593e-11 -5.07629e-11 4.06399e-11) (-2.93566e-12 2.23753e-11 -1.80062e-11) (1.81578e-11 1.87831e-11 -1.62957e-10) (-1.90763e-11 -3.35645e-11 -1.07425e-10) (-2.45309e-12 1.71512e-11 -8.79614e-11) (2.54678e-12 1.87328e-11 -1.32318e-10) (-1.22289e-12 -1.4396e-12 -2.49351e-10) (1.47952e-11 -1.59321e-13 -2.47205e-10) (2.14233e-11 -1.77321e-11 -2.17692e-10) (-2.32733e-12 -1.88141e-11 -1.63856e-10)
1850          (1.91895e-11 3.30277e-11 -7.02923e-11) (2.62182e-12 1.83838e-12 -3.0094e-11) (6.50465e-13 3.63257e-11 -6.94997e-11) (1.80083e-11 1.86299e-11 -1.37253e-10) (-1.62538e-13 -1.76661e-11 -1.5744e-10) (1.88057e-11 4.10015e-12 -2.8178e-10) (1.09744e-12 -7.37408e-13 -3.6636e-10) (3.38754e-11 4.55887e-12 -3.41549e-10) (-3.04266e-11 1.89227e-11 -4.12528e-10) (2.23855e-11 3.69392e-12 -5.24851e-10) (-1.81999e-11 -3.31703e-14 -5.40163e-10)
1900          (1.64794e-12 2.00508e-11 -7.05894e-11) (1.827e-11 2.01724e-13 -4.38624e-11) (1.87253e-11 1.36154e-11 -1.9663e-11) (-1.7256e-11 -1.33571e-12 -2.2818e-10) (-3.5031e-11 1.30752e-11 -2.08079e-10) (-6.61734e-13 4.15092e-13 -1.68579e-10) (-1.62963e-12 -1.75451e-11 -5.62257e-11) (-1.51754e-11 6.32851e-13 -1.15759e-10) (1.06741e-12 1.69313e-11 -1.6731e-10) (3.46343e-11 -1.59933e-11 -3.09964e-10) (1.50684e-12 5.01989e-13 -3.12287e-10)
1950          (1.34408e-12 -1.77582e-11 3.42353e-11) (1.53694e-11 -1.53006e-11 -6.79391e-11) (-4.41218e-13 6.00013e-13 1.49861e-11) (-1.61755e-11 -2.96321e-12 -1.20732e-10) (2.1723e-11 9.86919e-12 -1.95273e-10) (2.16606e-12 4.55549e-13 -1.58986e-10) (1.27763e-12 1.27379e-11 -3.78577e-10) (1.62963e-11 -2.79236e-12 -2.30955e-10) (2.38452e-12 1.43734e-11 -4.11553e-10) (-5.218e-12 -3.16905e-11 -3.523e-10) (-3.00434e-12 -1.79057e-11 -3.60691e-10)
2000          (2.11116e-11 1.58468e-12 3.04739e-11) (-1.24633e-12 -1.63551e-11 4.27686e-12) (1.79812e-11 5.26663e-12 6.93601e-12) (-1.61588e-11 1.93026e-12 -1.0406e-10) (-9.08626e-13 1.27148e-12 -1.10317e-10) (-2.76248e-11 1.49584e-11 -1.27023e-10) (6.55184e-14 -3.61705e-11 -2.49484e-10) (-4.06537e-11 9.5444e-13 -1.88146e-10) (1.94248e-11 -3.70834e-11 -3.63056e-10) (3.32497e-11 1.60278e-11 -4.14027e-10) (3.91986e-13 1.43386e-12 -4.97233e-10)
2050          (-1.59634e-11 -2.0818e-11 -2.9396e-11) (1.924e-11 -3.42916e-11 6.63492e-11) (-2.9743e-11 -1.37821e-11 5.98428e-11) (-2.02544e-11 1.86712e-11 1.40498e-12) (-2.11371e-11 -1.63018e-12 -6.95712e-11) (9.76426e-13 -1.57477e-11 -3.32343e-11) (1.6922e-11 -4.82866e-11 -1.20876e-10) (-1.96259e-11 3.35141e-11 -1.38678e-10) (-1.44474e-11 3.17213e-11 -2.02214e-10) (-3.08024e-12 -1.84316e-11 -1.16991e-10) (1.87338e-11 1.84069e-11 -1.78435e-10)
2100          (1.44369e-12 -1.77985e-12 9.10765e-11) (-3.68554e-11 3.68787e-11 -2.34412e-11) (1.09108e-12 -3.25287e-12 -2.64068e-11) (-2.12403e-12 1.69808e-11 -9.3987e-11) (1.88431e-11 1.60166e-11 -1.6376e-10) (-1.4663e-12 2.54866e-12 -1.77231e-10) (1.47685e-12 2.13207e-11 -2.43855e-10) (-3.22774e-11 -5.38143e-12 -2.53923e-10) (7.69158e-13 2.99756e-11 -2.97122e-10) (-4.52123e-13 -1.58606e-11 -3.63198e-10) (-3.66674e-11 -1.56603e-11 -4.51406e-10)
2150          (1.69516e-11 3.33647e-11 -2.89629e-11) (-1.79649e-11 -1.72363e-11 7.71611e-11) (-2.08305e-11 -3.10723e-11 5.36345e-11) (8.80427e-14 1.81181e-11 4.01386e-12) (3.72747e-11 -1.87979e-11 -8.34155e-11) (1.39112e-11 1.48886e-12 -8.64632e-11) (-3.15059e-12 1.69764e-11 -5.81051e-11) (-2.34776e-11 2.04629e-12 -1.22614e-10) (-1.15843e-12 1.4699e-11 -5.49149e-11) (8.23605e-13 7.44065e-13 -9.62143e-11) (-3.62519e-11 2.43142e-12 -1.3283e-10)
2200          (1.60847e-11 1.3508e-13 3.1924e-11) (1.0374e-12 1.47703e-11 2.3052e-11) (-1.53951e-11 -1.53659e-12 -4.88855e-11) (-1.49078e-12 1.90495e-11 -9.10467e-11) (5.35004e-11 3.6497e-11 -1.63511e-10) (-5.13842e-11 -5.02645e-13 -1.92394e-10) (2.21343e-12 1.95137e-12 -2.31301e-10) (2.92625e-11 -3.13395e-11 -2.32631e-10) (-1.71957e-11 -1.90161e-11 -2.44625e-10) (1.61623e-13 -1.80284e-11 -3.66704e-10) (-5.05042e-13 1.3414e-12 -4.64079e-10)
2250          (3.53097e-11 -1.6815e-11 3.09062e-11) (-3.20403e-13 -1.39166e-12 5.35327e-11) (-1.95851e-11 -2.17067e-11 -9.1327e-11) (-3.78374e-11 1.28811e-11 -1.80918e-10) (-3.75067e-11 -1.06401e-13 -2.05314e-10) (6.50263e-13 1.68821e-11 -1.41473e-10) (-1.83961e-11 7.18769e-13 -2.81366e-10) (-1.33954e-12 1.66128e-14 -3.14032e-10) (4.61892e-11 -1.68291e-11 -3.35647e-10) (-2.11186e-11 9.25053e-13 -3.8613e-10) (-1.78394e-11 1.83436e-11 -1.99371e-10)
2300          (-1.18633e-12 -2.01476e-11 6.97551e-11) (-2.80982e-12 3.52985e-11 2.43191e-11) (1.36556e-12 1.76284e-11 -1.23837e-11) (1.53836e-11 -1.20829e-11 -1.59205e-10) (1.98405e-11 1.50705e-11 -2.16349e-10) (-1.5923e-11 1.47993e-11 -1.24927e-10) (1.95601e-11 1.98827e-11 -1.91229e-10) (2.85981e-13 -1.53846e-12 -1.59188e-10) (-3.2061e-12 -1.90164e-11 -7.10005e-11) (1.47826e-12 -1.81084e-11 -5.47911e-11) (2.29417e-12 -3.56524e-14 -1.39196e-10)
2350          (4.23187e-13 -1.67621e-11 6.05662e-14) (-4.68913e-12 -1.26089e-11 -1.91128e-11) (5.39697e-13 1.1409e-11 -7.52694e-11) (4.74961e-12 1.89877e-11 -3.60261e-11) (-3.18765e-11 -1.23354e-12 -1.17615e-10) (-1.99515e-11 1.829e-11 -6.70213e-11) (1.55354e-11 1.56311e-12 -9.69522e-11) (1.47709e-11 1.89452e-11 -2.32553e-10) (1.42042e-12 -1.80164e-11 -2.44075e-10) (-2.40036e-13 1.47119e-12 -2.57741e-10) (-1.1423e-12 -1.82587e-11 -2.32207e-10)
2400          (-1.28662e-11 -4.98549e-13 -1.24439e-11) (-1.5421e-11 1.50437e-11 -9.36283e-11) (1.53678e-11 -4.52069e-12 -1.06841e-10) (-8.77156e-13 1.69767e-12 -1.54254e-10) (3.33556e-11 -1.43252e-11 -1.53296e-10) (-1.56563e-11 3.23963e-12 -1.89184e-10) (2.50191e-12 1.62305e-11 -2.03884e-10) (-1.89976e-11 -1.69191e-11 -2.76954e-10) (-5.02013e-12 1.62262e-11 -2.21157e-10) (-1.9652e-11 1.77697e-13 -1.62837e-10) (1.77797e-12 -4.03222e-11 -2.50013e-10)
2450          (-2.06929e-12 -2.40359e-12 4.11733e-11) (-1.51852e-11 -3.73892e-11 3.06029e-11) (-5.8548e-11 -3.07106e-11 2.24489e-11) (1.46397e-11 -3.27065e-11 -1.91565e-11) (1.7486e-11 3.43311e-11 -5.60618e-12) (3.34973e-12 -1.75278e-12 -1.11077e-11) (8.82583e-13 7.7203e-13 -5.32346e-11) (1.96957e-11 3.27618e-11 -9.89995e-11) (-2.04352e-11 -4.14686e-12 -8.18693e-11) (1.72107e-11 1.5903e-11 -5.0596e-11) (1.66113e-11 3.63567e-12 -1.58909e-10)
2500          (1.55219e-11 -1.41694e-12 -4.40461e-12) (-1.2968e-11 -9.41281e-13 -7.85544e-11) (-4.99022e-14 -3.7162e-11 -1.02104e-10) (1.67169e-11 -4.18585e-12 -2.15612e-10) (5.03549e-12 -4.63348e-12 -2.64211e-10) (3.82804e-11 -4.81188e-11 -2.79324e-10) (5.49196e-13 3.69825e-11 -4.34094e-10) (-2.11151e-13 -2.83887e-11 -4.02273e-10) (3.37971e-12 -1.37605e-11 -4.3595e-10) (-1.21327e-12 -4.42965e-12 -3.46316e-10) (1.1674e-12 3.53628e-11 -3.66594e-10)
2550          (1.80762e-11 -9.50367e-14 8.90621e-14) (8.59402e-13 1.92409e-11 9.55091e-11) (1.92953e-12 1.494e-11 4.72549e-11) (3.63104e-11 1.30716e-11 1.02412e-10) (3.80228e-11 -1.78046e-11 1.04058e-10) (1.53721e-11 3.03687e-11 1.1803e-10) (-1.35527e-11 -2.03849e-11 -5.74491e-11) (-1.574e-12 1.73755e-11 -3.57999e-11) (-3.31637e-12 9.88606e-13 -4.33636e-11) (1.8329e-11 3.55661e-11 -6.38716e-11) (-6.03816e-13 -2.36498e-13 -4.94182e-11)
2600          (-1.77891e-11 -1.82381e-11 3.54527e-11) (-1.79723e-11 -2.62773e-13 -1.15719e-10) (1.8709e-11 1.77812e-11 -1.31112e-10) (-1.83625e-12 -9.70532e-13 -2.02711e-10) (1.29516e-11 3.92688e-11 -2.00893e-10) (1.27737e-11 -3.40574e-12 -1.79193e-10) (8.39878e-13 1.82813e-11 -1.92283e-10) (-2.10447e-11 -3.36647e-13 -1.84914e-10) (-1.78647e-13 -2.14001e-11 -2.31657e-10) (5.72147e-13 -1.57965e-12 -3.62339e-10) (-1.44446e-12 -1.44319e-12 -3.92031e-10)
2650          (-1.65619e-11 -4.94691e-11 3.31044e-11) (1.15467e-11 -1.18307e-13 -1.04382e-10) (1.23001e-11 2.85658e-13 -1.44459e-10) (-1.78488e-11 1.95863e-11 -1.84544e-10) (-1.74048e-11 1.90544e-11 1.1255e-11) (1.60226e-13 1.55976e-11 -3.33725e-11) (-1.53718e-11 -3.39088e-12 -7.61253e-11) (-2.00371e-11 -2.479e-12 -4.89592e-11) (1.32979e-12 1.51591e-11 4.91924e-11) (2.70168e-12 -3.39163e-11 -3.57679e-11) (-4.45343e-13 -1.83365e-11 8.02924e-12)
2700          (1.76792e-11 -3.28839e-11 -3.40036e-11) (-2.12004e-11 -3.66614e-13 4.48407e-11) (-3.67958e-11 -1.81715e-11 6.75586e-12) (1.69913e-11 1.93466e-11 4.87313e-12) (3.69129e-12 -2.07608e-11 -3.11486e-11) (-4.55844e-12 1.47229e-11 -4.13858e-11) (2.17449e-11 -3.08489e-12 -2.30271e-10) (-1.87539e-11 -3.65421e-11 -1.99449e-10) (3.57363e-11 -5.06453e-11 -1.76744e-10) (1.95724e-12 1.87395e-11 -7.87062e-11) (2.05173e-11 -3.44599e-13 -1.62218e-10)
2750          (-1.62849e-11 1.88634e-12 3.2976e-11) (3.94611e-12 -1.0368e-12 -4.27634e-12) (-1.31312e-11 -1.79199e-11 -9.5759e-11) (1.47026e-12 -1.84835e-11 3.39135e-14) (-2.16966e-11 1.92445e-11 -4.10001e-11) (-2.23229e-11 -2.00659e-11 -4.03134e-11) (1.68654e-11 -1.04179e-12 -1.54185e-10) (-1.79547e-12 -1.42393e-11 -1.12525e-10) (1.57146e-11 1.65134e-11 -7.23555e-11) (-1.88442e-11 -1.14058e-11 -1.07829e-10) (1.41548e-12 -3.97554e-11 -2.48941e-10)
2800          (1.55001e-11 -1.29823e-11 -3.22771e-11) (1.83148e-11 -2.19532e-11 -3.63616e-11) (1.6198e-12 2.16376e-11 -7.96021e-11) (-4.58584e-13 -1.49755e-11 -1.67589e-10) (3.13245e-11 3.55681e-11 -1.70052e-10) (1.79187e-11 1.87982e-11 -1.50608e-10) (3.30958e-12 1.62927e-11 -2.54095e-10) (-1.70121e-11 -3.31372e-11 -3.40064e-10) (3.74837e-11 -2.79707e-13 -3.1746e-10) (3.32007e-11 2.44764e-12 -3.6335e-10) (-3.03662e-12 -1.70026e-11 -3.94172e-10)
2850          (-4.55662e-11 2.09381e-11 3.2865e-11) (-1.48652e-11 3.29014e-12 -4.12808e-12) (1.66073e-11 -1.44847e-11 2.5581e-11) (2.37035e-12 2.64043e-12 -1.28959e-11) (-2.07569e-12 1.62402e-11 -1.39978e-11) (-1.55167e-11 -3.39793e-12 3.15062e-11) (-3.63549e-11 1.88477e-11 4.86061e-11) (1.79624e-11 1.54444e-11 -1.17471e-11) (-1.79406e-11 3.72491e-12 4.32811e-11) (-1.53218e-11 3.75331e-12 -3.17825e-11) (1.19123e-12 2.03802e-12 -4.03536e-11)
2900          (1.57174e-11 2.42396e-12 3.1036e-11) (-1.47052e-11 -4.01421e-11 9.80048e-11) (2.11043e-11 1.60806e-11 -7.08438e-11) (-1.75237e-12 2.16659e-11 -1.59256e-10) (2.18724e-11 -3.87976e-11 -3.44727e-10) (1.89366e-11 -2.02356e-11 -3.78691e-10) (-1.41709e-11 -5.73335e-13 -4.27264e-10) (-3.24838e-12 1.06347e-12 -6.01121e-10) (3.28875e-11 -1.62993e-11 -6.17183e-10) (-2.01124e-12 -1.67003e-11 -4.87577e-10) (6.79563e-13 -1.59504e-11 -7.15313e-10)
2950          (-2.11597e-13 -1.5162e-11 -6.79127e-11) (-1.22114e-12 -1.55407e-12 -8.94575e-11) (-3.33946e-11 3.37906e-11 -9.00581e-11) (-1.71092e-11 2.0528e-12 -1.4049e-10) (2.05563e-11 -1.99234e-11 -1.83458e-10) (-3.73502e-12 -2.0163e-11 -1.84954e-10) (1.41733e-11 3.66509e-11 -1.8741e-10) (3.55579e-11 1.79819e-11 -2.36355e-10) (1.84404e-11 1.57455e-11 -1.96606e-10) (-3.14085e-11 3.05611e-11 -3.06287e-10) (1.99381e-12 -1.97085e-11 -2.86844e-10)
3000          (-9.13415e-13 -1.27668e-11 1.24373e-12) (-1.47306e-11 -3.60263e-11 -7.59707e-11) (2.43022e-12 2.10834e-11 -8.09482e-11) (5.97591e-13 -1.98805e-12 -2.42375e-10) (2.56725e-13 -3.25782e-11 -2.81084e-10) (-3.22525e-12 -1.57628e-13 -2.4104e-10) (5.05184e-12 3.37825e-11 -2.31734e-10) (1.41924e-11 1.30875e-11 -2.76339e-10) (2.03702e-11 -1.98188e-11 -1.60564e-10) (-1.68571e-11 -1.76378e-11 -2.83288e-10) (-2.00428e-11 1.6356e-11 -2.6621e-10)
3050          (-1.70328e-11 -4.48253e-11 -1.89542e-13) (-1.3721e-12 3.61927e-11 3.98467e-11) (-6.26155e-13 1.74291e-11 4.38947e-11) (-8.30209e-13 -2.94991e-12 1.25326e-10) (1.72854e-11 1.48286e-11 -1.72894e-11) (3.0174e-12 3.43679e-11 -5.39965e-11) (1.97027e-12 -2.96216e-11 -6.184e-11) (-1.7169e-11 -3.04279e-11 -4.65622e-11) (3.46342e-11 4.5087e-11 -1.32946e-11) (-1.33248e-11 5.70044e-13 -5.36891e-11) (-1.88346e-11 3.6783e-11 -8.35397e-11)
3100          (1.35537e-11 -1.30704e-12 -4.55173e-12) (-9.03377e-13 -3.34071e-11 -8.27578e-11) (-1.53e-11 -1.5035e-11 -1.85335e-10) (-2.18662e-11 -2.74708e-12 -1.63108e-10) (-3.36682e-11 3.37079e-11 -1.87813e-10) (-1.67995e-11 -2.4979e-12 -1.90928e-10) (1.6875e-11 -1.55125e-11 -2.79751e-10) (3.74055e-11 4.33186e-12 -2.26577e-10) (-1.56434e-11 -1.82187e-11 -2.46285e-10) (-2.2155e-12 -1.20848e-12 -2.89323e-10) (1.69108e-11 -1.11476e-12 -4.59551e-10)
3150          (-1.84863e-11 3.08914e-11 3.11653e-11) (3.40638e-12 3.36118e-13 -4.81034e-11) (-1.60689e-11 1.54015e-11 -1.25044e-10) (-2.05543e-13 -2.99051e-12 -1.53393e-10) (-1.62957e-11 1.40968e-11 -2.25264e-10) (-2.50911e-12 1.93256e-12 -2.62631e-10) (1.80913e-11 -1.18461e-12 -3.28462e-10) (4.76394e-13 2.25258e-11 -2.63496e-10) (1.74528e-11 1.2983e-11 -4.27757e-10) (-1.82649e-11 1.64505e-11 -3.35509e-10) (-1.92481e-11 1.83162e-11 -2.97502e-10)
3200          (3.38212e-12 -1.79543e-11 5.34536e-13) (1.5781e-11 3.21201e-11 -1.6008e-11) (-1.30058e-11 3.90429e-11 -9.20919e-11) (3.77161e-11 6.18133e-12 -1.36139e-10) (-3.36753e-11 -1.63275e-11 -2.17125e-10) (2.12003e-11 1.7602e-11 -1.99003e-10) (-1.67995e-11 -2.27022e-11 -2.00794e-10) (7.07285e-11 -2.3859e-12 -3.4215e-10) (3.61581e-11 -1.62305e-11 -2.47753e-10) (1.85235e-12 -3.24772e-11 -3.23869e-10) (3.41421e-12 -2.03504e-11 -3.20786e-10)
3250          (-3.77533e-12 2.13951e-11 -6.33551e-12) (1.8769e-11 -2.80297e-13 -5.22007e-11) (-3.37665e-11 -2.01144e-11 1.45305e-11) (3.49113e-11 4.04163e-11 -7.73749e-11) (-3.48122e-11 1.78622e-11 -1.20512e-10) (-2.10407e-12 2.67049e-13 -7.56334e-12) (-2.8137e-11 -1.59114e-11 -1.08097e-10) (2.18847e-11 -3.57508e-11 -2.50683e-10) (-1.81985e-11 1.5752e-11 -1.97921e-10) (6.20832e-13 3.09381e-11 -2.45688e-10) (1.88223e-11 3.55681e-11 -3.56482e-10)