# Probe 0 (0.0015 0.0015 0)
# Probe 1 (0.0015 0.0015 0.002)
# Probe 2 (0.0015 0.0015 0.004)
# Probe 3 (0.0015 0.0015 0.006)
# Probe 4 (0.0015 0.0015 0.008)
# Probe 5 (0.0015 0.0015 0.01)
# Probe 6 (0.0015 0.0015 0.012)
# Probe 7 (0.0015 0.0015 0.014)
# Probe 8 (0.0015 0.0015 0.016)
# Probe 9 (0.0015 0.0015 0.018)
# Probe 10 (0.0015 0.0015 0.02)
# Time        0             1             2             3             4             5             6             7             8             9             10           
50            0.000946488   0.000946489   0.000946489   0.000946489   0.000946489   0.000946489   0.000946489   0.000946489   0.000946489   0.000946489   0.000946488  
100           0.000946488   0.000946489   0.000946489   0.000946489   0.000946489   0.000946489   0.000946489   0.000946489   0.000946489   0.000946489   0.000946488  
150           0.000946488   0.000946489   0.000946489   0.000946489   0.000946489   0.000946489   0.000946489   0.000946489   0.000946489   0.000946489   0.000946488  
200           0.000946488   0.000946489   0.000946489   0.000946489   0.000946489   0.000946489   0.000946489   0.000946489   0.000946489   0.000946489   0.000946488  
250           0.000946488   0.000946489   0.000946489   0.000946489   0.000946489   0.000946489   0.000946489   0.000946489   0.000946489   0.000946489   0.000946488  
300           0.000946488   0.000946489   0.000946489   0.000946489   0.000946489   0.000946489   0.000946489   0.000946489   0.000946489   0.000946489   0.000946488  
350           0.000946488   0.000946489   0.000946489   0.000946489   0.000946489   0.000946489   0.000946489   0.000946489   0.000946489   0.000946489   0.000946488  
400           0.000946488   0.000946489   0.000946489   0.000946489   0.000946489   0.000946489   0.000946489   0.000946489   0.000946489   0.000946489   0.000946488  
450           0.000946488   0.000946489   0.000946489   0.000946489   0.000946489   0.000946489   0.000946489   0.000946489   0.000946489   0.000946489   0.000946488  
500           0.000946488   0.000946489   0.000946489   0.000946489   0.000946489   0.000946489   0.000946489   0.000946489   0.000946489   0.000946489   0.000946488  
550           0.000946488   0.000946489   0.000946489   0.000946489   0.000946489   0.000946489   0.000946489   0.000946489   0.000946489   0.000946489   0.000946488  
600           0.000946488   0.000946489   0.000946489   0.000946489   0.000946489   0.000946489   0.000946489   0.000946489   0.000946489   0.000946489   0.000946488  
650           0.000946488   0.000946489   0.000946489   0.000946489   0.000946489   0.000946489   0.000946489   0.000946489   0.000946489   0.000946489   0.000946488  
700           0.000946488   0.000946489   0.000946489   0.000946489   0.000946489   0.000946489   0.000946489   0.000946489   0.000946489   0.000946489   0.000946488  
750           0.000946488   0.000946489   0.000946489   0.000946489   0.000946489   0.000946489   0.000946489   0.000946489   0.000946489   0.000946489   0.000946488  
800           0.000946488   0.000946489   0.000946489   0.000946489   0.000946489   0.000946489   0.000946489   0.000946489   0.000946489   0.000946489   0.000946488  
850           0.000946488   0.000946489   0.000946489   0.000946489   0.000946489   0.000946489   0.000946489   0.000946489   0.000946489   0.000946489   0.000946488  
900           0.000946488   0.000946489   0.000946489   0.000946489   0.000946489   0.000946489   0.000946489   0.000946489   0.000946489   0.000946489   0.000946488  
950           0.000946488   0.000946489   0.000946489   0.000946489   0.000946489   0.000946489   0.000946489   0.000946489   0.000946489   0.000946489   0.000946488  
1000          0.000946488   0.000946489   0.000946489   0.000946489   0.000946489   0.000946489   0.000946489   0.000946489   0.000946489   0.000946489   0.000946488  
1050          0.000946488   0.000946489   0.000946489   0.000946489   0.000946489   0.000946489   0.000946489   0.000946489   0.000946489   0.000946489   0.000946488  
1100          0.000946488   0.000946489   0.000946489   0.000946489   0.000946489   0.000946489   0.000946489   0.000946489   0.000946489   0.000946489   0.000946488  
1150          0.000946488   0.000946489   0.000946489   0.000946489   0.000946489   0.000946489   0.000946489   0.000946489   0.000946489   0.000946489   0.000946488  
1200          0.000946488   0.000946489   0.000946489   0.000946489   0.000946489   0.000946489   0.000946489   0.000946489   0.000946489   0.000946489   0.000946488  
1250          0.000946488   0.000946489   0.000946489   0.000946489   0.000946489   0.000946489   0.000946489   0.000946489   0.000946489   0.000946489   0.000946488  
1300          0.000946488   0.000946489   0.000946489   0.000946489   0.000946489   0.000946489   0.000946489   0.000946489   0.000946489   0.000946489   0.000946488  
1350          0.000946488   0.000946489   0.000946489   0.000946489   0.000946489   0.000946489   0.000946489   0.000946489   0.000946489   0.000946489   0.000946488  
1400          0.000946488   0.000946489   0.000946489   0.000946489   0.000946489   0.000946489   0.000946489   0.000946489   0.000946489   0.000946489   0.000946488  
1450          0.000946488   0.000946489   0.000946489   0.000946489   0.000946489   0.000946489   0.000946489   0.000946489   0.000946489   0.000946489   0.000946488  
1500          0.000946488   0.000946489   0.000946489   0.000946489   0.000946489   0.000946489   0.000946489   0.000946489   0.000946489   0.000946489   0.000946488  
1550          0.000946488   0.000946489   0.000946489   0.000946489   0.000946489   0.000946489   0.000946489   0.000946489   0.000946489   0.000946489   0.000946488  
1600          0.000946488   0.000946489   0.000946489   0.000946489   0.000946489   0.000946489   0.000946489   0.000946489   0.000946489   0.000946489   0.000946488  
1650          0.000946488   0.000946489   0.000946489   0.000946489   0.000946489   0.000946489   0.000946489   0.000946489   0.000946489   0.000946489   0.000946488  
1700          0.000946488   0.000946489   0.000946489   0.000946489   0.000946489   0.000946489   0.000946489   0.000946489   0.000946489   0.000946489   0.000946488  
1750          0.000946488   0.000946489   0.000946489   0.000946489   0.000946489   0.000946489   0.000946489   0.000946489   0.000946489   0.000946489   0.000946488  
1800          0.000946488   0.000946489   0.000946489   0.000946489   0.000946489   0.000946489   0.000946489   0.000946489   0.000946489   0.000946489   0.000946488  
1850          0.000946488   0.000946489   0.000946489   0.000946489   0.000946489   0.000946489   0.000946489   0.000946489   0.000946489   0.000946489   0.000946488  
1900          0.000946488   0.000946489   0.000946489   0.000946489   0.000946489   0.000946489   0.000946489   0.000946489   0.000946489   0.000946489   0.000946488  
1950          0.000946488   0.000946489   0.000946489   0.000946489   0.000946489   0.000946489   0.000946489   0.000946489   0.000946489   0.000946489   0.000946488  
2000          0.000946488   0.000946489   0.000946489   0.000946489   0.000946489   0.000946489   0.000946489   0.000946489   0.000946489   0.000946489   0.000946488  
2050          0.000946488   0.000946489   0.000946489   0.000946489   0.000946489   0.000946489   0.000946489   0.000946489   0.000946489   0.000946489   0.000946488  
2100          0.000946488   0.000946489   0.000946489   0.000946489   0.000946489   0.000946489   0.000946489   0.000946489   0.000946489   0.000946489   0.000946488  
2150          0.000946488   0.000946489   0.000946489   0.000946489   0.000946489   0.000946489   0.000946489   0.000946489   0.000946489   0.000946489   0.000946488  
2200          0.000946488   0.000946489   0.000946489   0.000946489   0.000946489   0.000946489   0.000946489   0.000946489   0.000946489   0.000946489   0.000946488  
2250          0.000946488   0.000946489   0.000946489   0.000946489   0.000946489   0.000946489   0.000946489   0.000946489   0.000946489   0.000946489   0.000946488  
2300          0.000946488   0.000946489   0.000946489   0.000946489   0.000946489   0.000946489   0.000946489   0.000946489   0.000946489   0.000946489   0.000946488  
2350          0.000946488   0.000946489   0.000946489   0.000946489   0.000946489   0.000946489   0.000946489   0.000946489   0.000946489   0.000946489   0.000946488  
2400          0.000946488   0.000946489   0.000946489   0.000946489   0.000946489   0.000946489   0.000946489   0.000946489   0.000946489   0.000946489   0.000946488  
2450          0.000946488   0.000946489   0.000946489   0.000946489   0.000946489   0.000946489   0.000946489   0.000946489   0.000946489   0.000946489   0.000946488  
2500          0.000946488   0.000946489   0.000946489   0.000946489   0.000946489   0.000946489   0.000946489   0.000946489   0.000946489   0.000946489   0.000946488  
2550          0.000946488   0.000946489   0.000946489   0.000946489   0.000946489   0.000946489   0.000946489   0.000946489   0.000946489   0.000946489   0.000946488  
2600          0.000946488   0.000946489   0.000946489   0.000946489   0.000946489   0.000946489   0.000946489   0.000946489   0.000946489   0.000946489   0.000946488  
2650          0.000946488   0.000946489   0.000946489   0.000946489   0.000946489   0.000946489   0.000946489   0.000946489   0.000946489   0.000946489   0.000946488  
2700          0.000946488   0.000946489   0.000946489   0.000946489   0.000946489   0.000946489   0.000946489   0.000946489   0.000946489   0.000946489   0.000946488  
2750          0.000946488   0.000946489   0.000946489   0.000946489   0.000946489   0.000946489   0.000946489   0.000946489   0.000946489   0.000946489   0.000946488  
2800          0.000946488   0.000946489   0.000946489   0.000946489   0.000946489   0.000946489   0.000946489   0.000946489   0.000946489   0.000946489   0.000946488  
2850          0.000946488   0.000946489   0.000946489   0.000946489   0.000946489   0.000946489   0.000946489   0.000946489   0.000946489   0.000946489   0.000946488  
2900          0.000946488   0.000946489   0.000946489   0.000946489   0.000946489   0.000946489   0.000946489   0.000946489   0.000946489   0.000946489   0.000946488  
2950          0.000946488   0.000946489   0.000946489   0.000946489   0.000946489   0.000946489   0.000946489   0.000946489   0.000946489   0.000946489   0.000946488  
3000          0.000946488   0.000946489   0.000946489   0.000946489   0.000946489   0.000946489   0.000946489   0.000946489   0.000946489   0.000946489   0.000946488  
3050          0.000946488   0.000946489   0.000946489   0.000946489   0.000946489   0.000946489   0.000946489   0.000946489   0.000946489   0.000946489   0.000946488  
3100          0.000946488   0.000946489   0.000946489   0.000946489   0.000946489   0.000946489   0.000946489   0.000946489   0.000946489   0.000946489   0.000946488  
3150          0.000946488   0.000946489   0.000946489   0.000946489   0.000946489   0.000946489   0.000946489   0.000946489   0.000946489   0.000946489   0.000946488  
3200          0.000946488   0.000946489   0.000946489   0.000946489   0.000946489   0.000946489   0.000946489   0.000946489   0.000946489   0.000946489   0.000946488  
3250          0.000946488   0.000946489   0.000946489   0.000946489   0.000946489   0.000946489   0.000946489   0.000946489   0.000946489   0.000946489   0.000946488  
3300          0.000946488   0.000946489   0.000946489   0.000946489   0.000946489   0.000946489   0.000946489   0.000946489   0.000946489   0.000946489   0.000946488  
3350          0.000946488   0.000946489   0.000946489   0.000946489   0.000946489   0.000946489   0.000946489   0.000946489   0.000946489   0.000946489   0.000946488  
3400          0.000946488   0.000946489   0.000946489   0.000946489   0.000946489   0.000946489   0.000946489   0.000946489   0.000946489   0.000946489   0.000946488  
3450          0.000946488   0.000946489   0.000946489   0.000946489   0.000946489   0.000946489   0.000946489   0.000946489   0.000946489   0.000946489   0.000946488  
3500          0.000946488   0.000946489   0.000946489   0.000946489   0.000946489   0.000946489   0.000946489   0.000946489   0.000946489   0.000946489   0.000946488  
3550          0.000946488   0.000946489   0.000946489   0.000946489   0.000946489   0.000946489   0.000946489   0.000946489   0.000946489   0.000946489   0.000946488  
3600          0.000946488   0.000946489   0.000946489   0.000946489   0.000946489   0.000946489   0.000946489   0.000946489   0.000946489   0.000946489   0.000946488  
3650          0.000946488   0.000946489   0.000946489   0.000946489   0.000946489   0.000946489   0.000946489   0.000946489   0.000946489   0.000946489   0.000946488  
3700          0.000946488   0.000946489   0.000946489   0.000946489   0.000946489   0.000946489   0.000946489   0.000946489   0.000946489   0.000946489   0.000946488  
3750          0.000946488   0.000946489   0.000946489   0.000946489   0.000946489   0.000946489   0.000946489   0.000946489   0.000946489   0.000946489   0.000946488  
3800          0.000946488   0.000946489   0.000946489   0.000946489   0.000946489   0.000946489   0.000946489   0.000946489   0.000946489   0.000946489   0.000946488  
3850          0.000946488   0.000946489   0.000946489   0.000946489   0.000946489   0.000946489   0.000946489   0.000946489   0.000946489   0.000946489   0.000946488  
3900          0.000946488   0.000946489   0.000946489   0.000946489   0.000946489   0.000946489   0.000946489   0.000946489   0.000946489   0.000946489   0.000946488  
3950          0.000946488   0.000946489   0.000946489   0.000946489   0.000946489   0.000946489   0.000946489   0.000946489   0.000946489   0.000946489   0.000946488  
4000          0.000946488   0.000946489   0.000946489   0.000946489   0.000946489   0.000946489   0.000946489   0.000946489   0.000946489   0.000946489   0.000946488  
4050          0.000946488   0.000946489   0.000946489   0.000946489   0.000946489   0.000946489   0.000946489   0.000946489   0.000946489   0.000946489   0.000946488  
4100          0.000946488   0.000946489   0.000946489   0.000946489   0.000946489   0.000946489   0.000946489   0.000946489   0.000946489   0.000946489   0.000946488  
4150          0.000946488   0.000946489   0.000946489   0.000946489   0.000946489   0.000946489   0.000946489   0.000946489   0.000946489   0.000946489   0.000946488  
4200          0.000946488   0.000946489   0.000946489   0.000946489   0.000946489   0.000946489   0.000946489   0.000946489   0.000946489   0.000946489   0.000946488  
4250          0.000946488   0.000946489   0.000946489   0.000946489   0.000946489   0.000946489   0.000946489   0.000946489   0.000946489   0.000946489   0.000946488  
4300          0.000946488   0.000946489   0.000946489   0.000946489   0.000946489   0.000946489   0.000946489   0.000946489   0.000946489   0.000946489   0.000946488  
4350          0.000946488   0.000946489   0.000946489   0.000946489   0.000946489   0.000946489   0.000946489   0.000946489   0.000946489   0.000946489   0.000946488  
4400          0.000946488   0.000946489   0.000946489   0.000946489   0.000946489   0.000946489   0.000946489   0.000946489   0.000946489   0.000946489   0.000946488  
4450          0.000946488   0.000946489   0.000946489   0.000946489   0.000946489   0.000946489   0.000946489   0.000946489   0.000946489   0.000946489   0.000946488  
4500          0.000946488   0.000946489   0.000946489   0.000946489   0.000946489   0.000946489   0.000946489   0.000946489   0.000946489   0.000946489   0.000946488  
4550          0.000946488   0.000946489   0.000946489   0.000946489   0.000946489   0.000946489   0.000946489   0.000946489   0.000946489   0.000946489   0.000946488  
4600          0.000946488   0.000946489   0.000946489   0.000946489   0.000946489   0.000946489   0.000946489   0.000946489   0.000946489   0.000946489   0.000946488  
4650          0.000946488   0.000946489   0.000946489   0.000946489   0.000946489   0.000946489   0.000946489   0.000946489   0.000946489   0.000946489   0.000946488  
4700          0.000946488   0.000946489   0.000946489   0.000946489   0.000946489   0.000946489   0.000946489   0.000946489   0.000946489   0.000946489   0.000946488  
4750          0.000946488   0.000946489   0.000946489   0.000946489   0.000946489   0.000946489   0.000946489   0.000946489   0.000946489   0.000946489   0.000946488  
4800          0.000946488   0.000946489   0.000946489   0.000946489   0.000946489   0.000946489   0.000946489   0.000946489   0.000946489   0.000946489   0.000946488  
4850          0.000946488   0.000946489   0.000946489   0.000946489   0.000946489   0.000946489   0.000946489   0.000946489   0.000946489   0.000946489   0.000946488  
4900          0.000946488   0.000946489   0.000946489   0.000946489   0.000946489   0.000946489   0.000946489   0.000946489   0.000946489   0.000946489   0.000946488  
4950          0.000946488   0.000946489   0.000946489   0.000946489   0.000946489   0.000946489   0.000946489   0.000946489   0.000946489   0.000946489   0.000946488  
5000          0.000946488   0.000946489   0.000946489   0.000946489   0.000946489   0.000946489   0.000946489   0.000946489   0.000946489   0.000946489   0.000946488  
