# Probe 0 (0.0015 0.0015 0)
# Probe 1 (0.0015 0.0015 0.002)
# Probe 2 (0.0015 0.0015 0.004)
# Probe 3 (0.0015 0.0015 0.006)
# Probe 4 (0.0015 0.0015 0.008)
# Probe 5 (0.0015 0.0015 0.01)
# Probe 6 (0.0015 0.0015 0.012)
# Probe 7 (0.0015 0.0015 0.014)
# Probe 8 (0.0015 0.0015 0.016)
# Probe 9 (0.0015 0.0015 0.018)
# Probe 10 (0.0015 0.0015 0.02)
# Time        0             1             2             3             4             5             6             7             8             9             10           
50            (-1.43737e-11 -6.014e-12 1.36782e-10) (-1.01442e-10 5.86555e-11 -5.74826e-10) (-6.60376e-11 -1.04698e-10 -1.74498e-09) (-8.60394e-11 -1.43782e-10 -2.61475e-09) (-5.18359e-11 -8.4951e-11 -3.41991e-09) (-1.28399e-11 -2.43565e-10 -3.99803e-09) (2.02628e-10 -8.14595e-11 -5.41662e-09) (1.0459e-10 -1.13074e-10 -5.77314e-09) (3.0207e-10 -3.23657e-10 -7.43108e-09) (1.95411e-10 -1.69058e-10 -7.96209e-09) (1.57884e-10 -1.6501e-10 -9.71436e-09)
100           (2.8598e-11 2.53282e-11 9.49295e-11) (2.98653e-10 -1.81901e-10 -1.31589e-09) (3.4199e-10 -1.00547e-10 -2.53346e-09) (2.99314e-10 4.77253e-11 -3.65469e-09) (3.03277e-10 -8.6625e-11 -4.06269e-09) (3.78183e-10 -2.0242e-10 -4.45975e-09) (6.85143e-10 -3.15663e-10 -4.7732e-09) (5.03141e-10 -4.83784e-10 -5.62866e-09) (7.19833e-10 -4.24461e-10 -6.55947e-09) (4.43121e-10 -2.96299e-10 -8.27961e-09) (4.99962e-10 -1.51131e-10 -8.91818e-09)
150           (6.17038e-12 -2.32659e-11 -4.08815e-11) (-4.56325e-11 -1.99718e-10 -7.36975e-10) (6.19857e-11 -2.55019e-10 -1.19499e-09) (6.14484e-11 -2.43161e-10 -1.74723e-09) (4.27581e-10 -3.40068e-10 -2.87871e-09) (5.18402e-10 -4.93295e-10 -3.71565e-09) (8.7739e-10 -7.5992e-10 -4.51273e-09) (5.03442e-10 -7.61335e-10 -5.20852e-09) (6.10983e-10 -7.68281e-10 -6.31855e-09) (8.8275e-10 -6.55236e-10 -6.77095e-09) (9.42194e-10 -4.01381e-10 -7.15721e-09)
200           (-2.69221e-11 -2.60499e-11 -1.52598e-10) (-1.99339e-11 -4.73083e-11 -1.15353e-09) (-3.399e-11 -7.76652e-11 -1.89302e-09) (1.38582e-10 -2.02654e-10 -2.54099e-09) (6.52042e-10 -3.67875e-10 -3.25854e-09) (8.48578e-10 -7.31509e-10 -3.33532e-09) (9.04711e-10 -8.37676e-10 -3.94192e-09) (6.03833e-10 -7.09718e-10 -4.79571e-09) (7.51977e-10 -8.84835e-10 -6.37722e-09) (1.05887e-09 -8.29758e-10 -6.63382e-09) (1.18848e-09 -7.28255e-10 -9.16776e-09)
250           (5.47078e-11 -7.99259e-11 6.63879e-11) (-8.49709e-12 8.85171e-12 -9.04476e-10) (2.82686e-10 -9.5272e-11 -1.49614e-09) (6.95889e-10 -2.90291e-10 -2.4865e-09) (5.86864e-10 -5.67828e-10 -2.8285e-09) (7.43706e-10 -8.12311e-10 -3.44205e-09) (5.8901e-10 -8.60338e-10 -4.51657e-09) (9.04703e-10 -9.42014e-10 -5.22143e-09) (1.19446e-09 -7.94046e-10 -6.16408e-09) (1.28652e-09 -7.44065e-10 -6.37226e-09) (1.24254e-09 -8.54087e-10 -7.18044e-09)
300           (-8.43407e-11 -8.95024e-11 1.03033e-10) (6.54454e-11 -1.56955e-12 -9.39359e-10) (1.55316e-10 -7.53041e-12 -2.73044e-09) (3.72965e-10 -5.33369e-10 -3.17424e-09) (6.59916e-10 -8.64072e-10 -4.03962e-09) (1.14484e-09 -1.22856e-09 -4.75175e-09) (1.31356e-09 -1.05348e-09 -6.05993e-09) (1.36151e-09 -9.05503e-10 -6.40951e-09) (1.55452e-09 -1.0564e-09 -7.19892e-09) (1.22557e-09 -1.29565e-09 -7.57101e-09) (1.15538e-09 -1.02531e-09 -8.56922e-09)
350           (6.37197e-11 -1.90523e-11 1.95255e-10) (1.24648e-10 -2.43637e-10 -7.96265e-10) (3.1399e-10 -4.14582e-10 -2.21825e-09) (5.3642e-10 -6.68345e-10 -2.55164e-09) (1.10908e-09 -8.26427e-10 -3.65539e-09) (1.29212e-09 -1.24408e-09 -4.77484e-09) (1.33531e-09 -1.24661e-09 -5.00999e-09) (1.51961e-09 -1.46485e-09 -6.37574e-09) (1.6135e-09 -1.67723e-09 -7.18832e-09) (1.62514e-09 -1.57244e-09 -7.6584e-09) (1.51878e-09 -1.35227e-09 -8.15556e-09)
400           (5.99303e-11 1.73135e-11 -2.3347e-11) (2.89178e-10 -2.10365e-10 -7.06799e-10) (3.57877e-10 -2.04001e-10 -1.07466e-09) (5.46156e-10 -6.13084e-10 -2.50572e-09) (8.71389e-10 -8.32331e-10 -2.93676e-09) (1.27878e-09 -1.34993e-09 -4.22406e-09) (1.37802e-09 -1.40219e-09 -4.81125e-09) (1.54429e-09 -1.39118e-09 -5.63943e-09) (1.61924e-09 -1.52701e-09 -7.04312e-09) (1.726e-09 -1.35603e-09 -8.02284e-09) (1.76422e-09 -1.38223e-09 -9.49581e-09)
450           (3.89691e-12 1.67388e-11 -1.80294e-10) (5.99531e-11 -1.73747e-10 -9.62476e-10) (3.02082e-10 -3.70839e-10 -2.19397e-09) (1.05147e-09 -7.85935e-10 -2.43127e-09) (1.28946e-09 -9.94436e-10 -3.89318e-09) (1.50024e-09 -1.33292e-09 -4.71297e-09) (1.45047e-09 -1.54684e-09 -5.53835e-09) (1.72087e-09 -1.72758e-09 -6.75451e-09) (2.08228e-09 -1.75865e-09 -7.00716e-09) (2.02201e-09 -1.5883e-09 -7.42823e-09) (2.0862e-09 -1.39718e-09 -8.7065e-09)
500           (-1.51312e-11 -1.77304e-11 1.28627e-10) (2.72896e-10 -2.7547e-10 -1.5089e-09) (3.83459e-10 -4.77847e-10 -2.48004e-09) (8.07544e-10 -8.30568e-10 -3.15084e-09) (1.47306e-09 -1.13205e-09 -3.64027e-09) (1.62077e-09 -1.4786e-09 -4.48189e-09) (1.70039e-09 -1.60749e-09 -4.94871e-09) (1.91872e-09 -1.86863e-09 -6.06673e-09) (2.06026e-09 -2.02138e-09 -6.50933e-09) (2.05374e-09 -1.82515e-09 -7.18713e-09) (2.14919e-09 -1.93203e-09 -6.49748e-09)
550           (2.92225e-11 7.24028e-11 1.36729e-10) (1.50213e-10 -2.72355e-10 -9.91515e-10) (5.01671e-10 -5.79883e-10 -1.91524e-09) (8.17276e-10 -1.00023e-09 -2.90273e-09) (1.42262e-09 -1.34486e-09 -3.3367e-09) (1.60639e-09 -1.73974e-09 -4.16701e-09) (1.9151e-09 -2.00368e-09 -5.4811e-09) (2.16982e-09 -2.0368e-09 -6.46197e-09) (2.39823e-09 -2.05065e-09 -7.60816e-09) (2.41363e-09 -1.95235e-09 -8.4248e-09) (2.48456e-09 -1.96099e-09 -1.01969e-08)
600           (-4.13425e-11 -4.56708e-11 -9.90503e-11) (1.57219e-10 -3.96978e-10 -9.99104e-10) (4.42393e-10 -5.45048e-10 -1.57155e-09) (9.26954e-10 -9.81315e-10 -2.16794e-09) (1.26313e-09 -1.37292e-09 -3.36722e-09) (1.82758e-09 -1.66469e-09 -3.81818e-09) (2.08638e-09 -2.26922e-09 -4.50958e-09) (2.21545e-09 -2.38028e-09 -4.9335e-09) (2.60923e-09 -2.22149e-09 -5.71328e-09) (2.68588e-09 -2.25368e-09 -6.25619e-09) (2.69155e-09 -2.36929e-09 -6.53523e-09)
650           (1.76588e-11 -1.66534e-11 1.22099e-10) (2.27961e-10 -3.98774e-10 -8.19171e-10) (5.14999e-10 -7.17417e-10 -1.47817e-09) (1.00809e-09 -1.2012e-09 -2.87209e-09) (1.34665e-09 -1.4266e-09 -2.917e-09) (1.92863e-09 -1.90942e-09 -4.06398e-09) (2.2516e-09 -1.92926e-09 -5.29353e-09) (2.51504e-09 -2.16279e-09 -6.35521e-09) (2.81022e-09 -2.40795e-09 -6.83323e-09) (2.87155e-09 -2.4961e-09 -8.3625e-09) (2.65878e-09 -2.33067e-09 -8.51968e-09)
700           (-6.75161e-12 4.24843e-11 -5.56622e-11) (2.32111e-10 -2.18777e-10 -9.30453e-10) (6.58766e-10 -7.6951e-10 -1.22301e-09) (9.93963e-10 -1.22929e-09 -2.37058e-09) (1.53314e-09 -1.49741e-09 -3.09466e-09) (2.0341e-09 -1.93836e-09 -3.74849e-09) (2.48858e-09 -2.23576e-09 -4.38375e-09) (2.66648e-09 -2.45288e-09 -5.58495e-09) (3.00686e-09 -2.65063e-09 -6.15277e-09) (3.18062e-09 -2.34208e-09 -7.17375e-09) (3.15995e-09 -2.33892e-09 -7.31634e-09)
750           (-3.85917e-11 -8.72206e-11 1.54974e-10) (4.62618e-10 -3.69391e-10 -6.64924e-10) (8.2126e-10 -7.48392e-10 -1.49315e-09) (1.00535e-09 -1.09058e-09 -1.87425e-09) (1.56326e-09 -1.45707e-09 -3.0466e-09) (2.27406e-09 -1.62042e-09 -3.77242e-09) (2.67163e-09 -2.32263e-09 -4.99358e-09) (2.8912e-09 -2.5914e-09 -5.732e-09) (3.13013e-09 -2.68751e-09 -6.52158e-09) (3.20067e-09 -2.44358e-09 -7.14964e-09) (3.25963e-09 -2.73095e-09 -9.9198e-09)
800           (-3.24437e-11 2.42439e-11 -3.17072e-11) (3.12759e-10 -4.63551e-10 -1.79735e-10) (1.13004e-09 -6.80125e-10 -2.05824e-09) (1.34483e-09 -1.3265e-09 -2.48415e-09) (1.77605e-09 -1.84184e-09 -3.64278e-09) (2.39137e-09 -2.21561e-09 -4.57223e-09) (2.63758e-09 -2.26757e-09 -5.66259e-09) (2.92988e-09 -2.46904e-09 -5.63999e-09) (3.18876e-09 -2.66152e-09 -6.78378e-09) (3.30636e-09 -2.75217e-09 -8.43803e-09) (3.36861e-09 -2.70357e-09 -9.92043e-09)
850           (3.04071e-11 -3.79757e-11 -1.01709e-10) (5.35765e-10 -5.0993e-10 -8.55182e-10) (1.23082e-09 -7.17054e-10 -1.77768e-09) (1.67736e-09 -1.25454e-09 -3.00481e-09) (2.12688e-09 -1.8088e-09 -3.86248e-09) (2.62153e-09 -2.03263e-09 -4.15895e-09) (3.0648e-09 -2.3559e-09 -5.16059e-09) (3.172e-09 -2.93094e-09 -5.52173e-09) (3.36962e-09 -2.77746e-09 -6.89946e-09) (3.61536e-09 -2.85e-09 -7.46748e-09) (3.63114e-09 -2.85655e-09 -7.76521e-09)
900           (7.42184e-12 3.33016e-11 -2.80816e-12) (3.34018e-10 -6.1889e-10 -8.40717e-10) (7.2906e-10 -8.62833e-10 -1.6621e-09) (1.46552e-09 -1.39273e-09 -2.32468e-09) (2.01362e-09 -1.85211e-09 -3.04431e-09) (2.39041e-09 -2.20142e-09 -3.33844e-09) (2.73273e-09 -2.72861e-09 -3.73985e-09) (3.48188e-09 -2.9099e-09 -4.44202e-09) (3.8073e-09 -3.22892e-09 -5.51632e-09) (3.71152e-09 -3.2328e-09 -6.1236e-09) (3.64388e-09 -3.30978e-09 -6.95022e-09)
950           (-3.04569e-11 -3.60624e-11 -9.44306e-11) (5.20378e-10 -3.92171e-10 -1.01186e-09) (1.07782e-09 -9.45554e-10 -2.22722e-09) (1.91418e-09 -1.40123e-09 -2.57681e-09) (2.57571e-09 -1.89607e-09 -3.46532e-09) (3.01934e-09 -2.40139e-09 -4.42684e-09) (3.08099e-09 -2.86762e-09 -5.23358e-09) (3.3154e-09 -3.17804e-09 -6.55128e-09) (3.36717e-09 -3.18238e-09 -7.61624e-09) (3.66274e-09 -3.11879e-09 -8.84563e-09) (3.88209e-09 -3.00657e-09 -1.02258e-08)
1000          (5.274e-11 -2.05848e-11 -9.9583e-11) (5.61986e-10 -2.29671e-10 -8.81463e-10) (9.5666e-10 -1.04814e-09 -1.44225e-09) (1.53656e-09 -1.57697e-09 -2.37927e-09) (2.60109e-09 -2.34903e-09 -3.21894e-09) (2.9651e-09 -2.76904e-09 -4.46247e-09) (3.75193e-09 -3.03926e-09 -4.79162e-09) (3.821e-09 -3.14167e-09 -5.02581e-09) (3.81875e-09 -3.27833e-09 -6.72267e-09) (3.89836e-09 -3.36262e-09 -7.0195e-09) (4.21372e-09 -3.46562e-09 -6.79714e-09)
1050          (8.99532e-11 3.67848e-13 1.36051e-10) (7.35834e-10 -4.01694e-10 -7.37783e-10) (1.30886e-09 -9.25351e-10 -2.03226e-09) (1.61659e-09 -1.65336e-09 -3.15021e-09) (2.3415e-09 -2.20496e-09 -3.88612e-09) (2.94947e-09 -2.61039e-09 -4.80327e-09) (3.45946e-09 -3.23834e-09 -6.11259e-09) (3.84175e-09 -3.43822e-09 -6.77792e-09) (4.21442e-09 -3.46052e-09 -8.36953e-09) (4.16214e-09 -3.65556e-09 -8.20604e-09) (4.15748e-09 -3.56493e-09 -8.69629e-09)
1100          (-3.29067e-11 -3.17348e-11 1.86131e-13) (4.75808e-10 -5.36888e-10 -7.53357e-10) (1.13487e-09 -1.02717e-09 -1.75278e-09) (1.75601e-09 -1.54095e-09 -3.01764e-09) (2.26605e-09 -2.00929e-09 -3.52243e-09) (2.97236e-09 -2.67303e-09 -4.50512e-09) (3.36594e-09 -3.19523e-09 -5.20283e-09) (3.86588e-09 -3.44653e-09 -6.09831e-09) (4.2753e-09 -3.50472e-09 -6.68494e-09) (4.70437e-09 -3.51467e-09 -7.63894e-09) (4.62636e-09 -3.64651e-09 -7.99847e-09)
1150          (3.57479e-11 1.77061e-11 6.86041e-11) (6.53224e-10 -6.77069e-10 -8.59455e-10) (1.23495e-09 -1.29351e-09 -2.25707e-09) (1.55587e-09 -1.84446e-09 -2.62843e-09) (2.47248e-09 -2.40675e-09 -3.17552e-09) (2.91457e-09 -2.83878e-09 -3.27961e-09) (3.47344e-09 -3.27648e-09 -4.51704e-09) (4.08228e-09 -3.57294e-09 -5.13672e-09) (4.35882e-09 -3.5871e-09 -6.21426e-09) (4.55833e-09 -3.46965e-09 -7.49348e-09) (4.69485e-09 -3.741e-09 -8.24385e-09)
1200          (6.80534e-11 -5.01876e-11 -1.93166e-10) (6.2743e-10 -7.1466e-10 -9.06715e-10) (1.13916e-09 -9.19706e-10 -2.09713e-09) (2.01222e-09 -1.58167e-09 -2.26745e-09) (2.69224e-09 -2.12235e-09 -3.07813e-09) (3.26973e-09 -3.06819e-09 -4.40622e-09) (3.63135e-09 -3.53745e-09 -6.07263e-09) (4.15906e-09 -3.51912e-09 -5.83246e-09) (4.54687e-09 -3.92288e-09 -7.1116e-09) (4.57358e-09 -3.99009e-09 -8.07236e-09) (4.92332e-09 -3.87706e-09 -7.66208e-09)
1250          (6.25027e-11 3.64472e-12 -6.75825e-11) (6.38638e-10 -3.82817e-10 -7.27905e-10) (1.33048e-09 -1.21599e-09 -2.58833e-09) (1.85635e-09 -2.13058e-09 -3.77507e-09) (2.54476e-09 -2.62327e-09 -4.8929e-09) (3.23839e-09 -3.12923e-09 -5.05155e-09) (3.71169e-09 -3.52925e-09 -5.10686e-09) (4.20766e-09 -3.90578e-09 -5.88077e-09) (4.89788e-09 -4.15542e-09 -6.74031e-09) (5.05669e-09 -4.17877e-09 -7.75554e-09) (4.89316e-09 -4.02828e-09 -8.65873e-09)
1300          (9.54262e-11 2.80147e-11 -5.01559e-11) (5.39561e-10 -6.19673e-10 -7.19437e-10) (1.32582e-09 -1.27845e-09 -1.37069e-09) (2.14886e-09 -2.12893e-09 -1.98157e-09) (2.87202e-09 -2.539e-09 -2.48991e-09) (3.56487e-09 -3.27965e-09 -3.30392e-09) (4.0972e-09 -3.62551e-09 -4.22841e-09) (4.66406e-09 -3.82643e-09 -4.34864e-09) (4.91152e-09 -4.07895e-09 -5.28408e-09) (5.09754e-09 -4.56875e-09 -5.72213e-09) (5.04419e-09 -4.26069e-09 -6.32999e-09)
1350          (-3.01329e-11 2.64393e-12 1.83292e-11) (5.10884e-10 -5.79985e-10 -8.36951e-10) (1.34152e-09 -1.42712e-09 -2.27218e-09) (1.99337e-09 -1.9617e-09 -3.21771e-09) (2.96529e-09 -2.7252e-09 -4.11775e-09) (3.408e-09 -3.22053e-09 -4.63618e-09) (4.06193e-09 -3.78892e-09 -5.35833e-09) (4.72339e-09 -3.92107e-09 -6.72367e-09) (5.05435e-09 -4.33928e-09 -7.49344e-09) (5.15239e-09 -4.4845e-09 -8.03117e-09) (5.13305e-09 -4.49398e-09 -9.41966e-09)
1400          (4.24974e-11 7.15077e-11 -8.03031e-13) (7.85346e-10 -6.54683e-10 -1.48986e-09) (1.5134e-09 -1.387e-09 -1.98048e-09) (1.98877e-09 -2.11891e-09 -2.74956e-09) (2.78943e-09 -2.81516e-09 -3.92733e-09) (3.88369e-09 -3.41608e-09 -5.15568e-09) (4.39052e-09 -4.11723e-09 -5.92289e-09) (4.80956e-09 -4.33899e-09 -6.19741e-09) (5.28469e-09 -4.40385e-09 -7.15239e-09) (5.42673e-09 -4.4247e-09 -8.16892e-09) (5.21337e-09 -4.42654e-09 -9.54126e-09)
1450          (3.32007e-11 -1.29579e-10 2.7315e-11) (6.81893e-10 -8.23039e-10 -8.2102e-10) (1.44224e-09 -1.11028e-09 -1.5435e-09) (2.28035e-09 -1.99866e-09 -2.39321e-09) (3.12074e-09 -2.89233e-09 -3.36496e-09) (3.67123e-09 -3.29273e-09 -3.99903e-09) (4.18497e-09 -3.97125e-09 -4.35073e-09) (4.91228e-09 -4.46742e-09 -4.70765e-09) (5.15049e-09 -4.57586e-09 -6.33735e-09) (5.46932e-09 -4.6057e-09 -6.85362e-09) (5.40659e-09 -4.61074e-09 -8.87846e-09)
1500          (-2.19528e-11 -3.33211e-11 -6.09805e-11) (6.45442e-10 -6.60303e-10 -1.3216e-09) (1.44962e-09 -1.31116e-09 -1.86827e-09) (2.27279e-09 -2.10601e-09 -2.26994e-09) (3.03444e-09 -2.82627e-09 -2.99204e-09) (3.83029e-09 -3.47348e-09 -3.75993e-09) (4.59641e-09 -3.91901e-09 -4.39387e-09) (5.0325e-09 -4.516e-09 -4.95772e-09) (5.5342e-09 -4.68831e-09 -5.71384e-09) (5.46404e-09 -4.86661e-09 -6.54721e-09) (5.54881e-09 -4.74838e-09 -8.12027e-09)
1550          (2.79537e-11 -2.04373e-11 6.20906e-11) (4.26824e-10 -4.5079e-10 -1.21428e-09) (1.31318e-09 -1.48238e-09 -1.71842e-09) (2.27967e-09 -2.15957e-09 -2.05237e-09) (3.19927e-09 -2.91522e-09 -3.79262e-09) (4.07532e-09 -3.58859e-09 -3.40527e-09) (4.76625e-09 -4.03031e-09 -4.84746e-09) (5.05619e-09 -4.29938e-09 -5.8164e-09) (5.47228e-09 -4.75589e-09 -6.72787e-09) (5.65986e-09 -4.77111e-09 -7.61945e-09) (5.799e-09 -4.76863e-09 -8.01773e-09)
1600          (-5.84282e-11 -7.62657e-12 9.46495e-11) (7.40952e-10 -5.16301e-10 -9.92408e-10) (1.43102e-09 -1.31905e-09 -5.1868e-10) (2.52084e-09 -2.1439e-09 -2.47225e-09) (3.31238e-09 -3.05808e-09 -2.97782e-09) (3.71942e-09 -3.81535e-09 -3.95603e-09) (4.76577e-09 -4.51756e-09 -4.73169e-09) (5.4639e-09 -4.75894e-09 -5.53719e-09) (5.69748e-09 -4.86607e-09 -7.1219e-09) (5.73004e-09 -4.98772e-09 -7.9555e-09) (5.74872e-09 -5.03749e-09 -8.15113e-09)
1650          (5.65082e-11 -4.0023e-11 3.52917e-11) (8.59252e-10 -7.68328e-10 -7.9505e-10) (1.58765e-09 -1.62367e-09 -2.07113e-09) (2.68837e-09 -2.45387e-09 -1.50967e-09) (3.33683e-09 -3.001e-09 -2.98698e-09) (4.26075e-09 -3.67506e-09 -3.75471e-09) (4.89368e-09 -4.21702e-09 -4.42316e-09) (5.50652e-09 -4.64212e-09 -5.24255e-09) (5.5405e-09 -5.02984e-09 -5.8872e-09) (5.89667e-09 -5.05199e-09 -6.67226e-09) (5.87135e-09 -4.70611e-09 -7.88915e-09)
1700          (2.64917e-11 -7.36262e-11 1.59462e-10) (7.98719e-10 -9.20288e-10 -1.11562e-09) (1.48636e-09 -1.44764e-09 -1.54824e-09) (2.44147e-09 -2.3806e-09 -2.61438e-09) (3.46809e-09 -3.09354e-09 -3.30672e-09) (4.35892e-09 -3.61558e-09 -3.84454e-09) (4.78986e-09 -4.2384e-09 -4.79343e-09) (5.24374e-09 -4.80956e-09 -5.90232e-09) (5.79904e-09 -4.9828e-09 -7.13807e-09) (6.22475e-09 -4.85008e-09 -7.6044e-09) (6.09294e-09 -5.28489e-09 -7.9457e-09)
1750          (7.102e-11 -5.93749e-11 -2.80499e-10) (9.68432e-10 -6.34027e-10 -9.00968e-10) (1.58548e-09 -1.59291e-09 -1.52027e-09) (2.51089e-09 -2.44673e-09 -1.92355e-09) (3.61309e-09 -2.97711e-09 -2.95367e-09) (4.4497e-09 -3.86607e-09 -3.30115e-09) (5.27992e-09 -4.64327e-09 -3.57551e-09) (5.6621e-09 -5.06345e-09 -4.63075e-09) (5.8474e-09 -5.31568e-09 -5.82313e-09) (6.05318e-09 -5.36421e-09 -6.41161e-09) (6.37046e-09 -5.34202e-09 -6.64786e-09)
1800          (4.63849e-11 -1.28673e-11 -9.1657e-11) (8.63891e-10 -9.48974e-10 -7.51639e-10) (1.94594e-09 -1.61736e-09 -1.49439e-09) (2.6266e-09 -2.34811e-09 -1.31169e-09) (3.49156e-09 -2.96783e-09 -3.28467e-09) (4.46492e-09 -4.00749e-09 -3.69541e-09) (5.31987e-09 -4.54673e-09 -4.22235e-09) (5.72034e-09 -4.93792e-09 -5.1385e-09) (6.02194e-09 -5.58026e-09 -6.46978e-09) (6.26405e-09 -5.78694e-09 -6.93599e-09) (6.38681e-09 -5.35359e-09 -7.93607e-09)
1850          (1.02329e-10 -8.36653e-11 6.75793e-11) (1.09268e-09 -8.58057e-10 -1.23951e-09) (1.78611e-09 -1.73585e-09 -1.62272e-09) (2.79588e-09 -2.46014e-09 -2.36622e-09) (3.63243e-09 -3.25974e-09 -2.99532e-09) (4.48677e-09 -4.10243e-09 -3.71261e-09) (5.26525e-09 -4.61476e-09 -4.73299e-09) (5.90215e-09 -5.11192e-09 -5.65895e-09) (6.22216e-09 -5.47801e-09 -6.89827e-09) (6.39687e-09 -5.47027e-09 -7.44373e-09) (6.35035e-09 -5.30679e-09 -8.61557e-09)
1900          (-1.96326e-11 3.08707e-12 5.3515e-11) (7.62371e-10 -7.54598e-10 -1.2751e-10) (1.72707e-09 -1.6254e-09 -1.70847e-09) (2.72251e-09 -2.49058e-09 -2.14189e-09) (3.95638e-09 -3.43472e-09 -3.70204e-09) (4.74219e-09 -4.15059e-09 -3.62959e-09) (5.51698e-09 -4.65371e-09 -4.60359e-09) (5.84741e-09 -5.27976e-09 -5.72708e-09) (6.25753e-09 -5.47828e-09 -6.60297e-09) (6.6168e-09 -5.73304e-09 -6.78768e-09) (6.67571e-09 -5.64393e-09 -7.13816e-09)
1950          (7.54873e-12 -2.20808e-11 -1.50248e-10) (7.95189e-10 -7.50915e-10 -9.58294e-10) (1.86497e-09 -1.55201e-09 -1.52445e-09) (2.91007e-09 -2.29213e-09 -2.49026e-09) (3.98975e-09 -3.49232e-09 -2.79428e-09) (4.70455e-09 -4.27962e-09 -3.6534e-09) (5.44388e-09 -4.70341e-09 -4.84992e-09) (5.94286e-09 -5.23583e-09 -5.53736e-09) (6.36555e-09 -5.35108e-09 -6.53616e-09) (6.72189e-09 -5.77878e-09 -6.83569e-09) (6.68109e-09 -5.76675e-09 -8.7535e-09)
2000          (2.99878e-11 1.28529e-11 -1.51387e-10) (7.45351e-10 -4.96867e-10 -8.89414e-10) (1.867e-09 -1.70961e-09 -2.07209e-09) (3.09507e-09 -2.53067e-09 -3.19878e-09) (3.97263e-09 -3.63028e-09 -4.04814e-09) (4.54215e-09 -4.51155e-09 -4.60365e-09) (5.24981e-09 -5.02324e-09 -5.52865e-09) (5.9924e-09 -5.53602e-09 -6.55413e-09) (6.57846e-09 -5.62593e-09 -7.13784e-09) (6.75139e-09 -5.50964e-09 -8.20277e-09) (6.67179e-09 -5.58986e-09 -8.83405e-09)
2050          (2.95533e-11 -6.85973e-11 -5.1046e-11) (1.23131e-09 -8.28036e-10 -7.55122e-10) (2.01489e-09 -1.86792e-09 -1.92312e-09) (2.81509e-09 -2.60748e-09 -3.0638e-09) (3.9045e-09 -3.25638e-09 -3.24806e-09) (4.75463e-09 -4.1386e-09 -4.64247e-09) (5.60844e-09 -4.84531e-09 -5.02882e-09) (6.24665e-09 -5.37088e-09 -6.2266e-09) (6.68949e-09 -5.66319e-09 -6.88276e-09) (6.85191e-09 -5.88087e-09 -7.33926e-09) (7.09252e-09 -5.80658e-09 -6.77205e-09)
2100          (5.76346e-11 -7.60899e-11 -2.17282e-11) (9.06476e-10 -7.50163e-10 -8.27523e-10) (1.79105e-09 -1.69043e-09 -1.58746e-09) (3.0026e-09 -2.732e-09 -1.84346e-09) (4.10411e-09 -3.55444e-09 -2.67336e-09) (4.80628e-09 -4.46003e-09 -3.49045e-09) (5.56233e-09 -5.01622e-09 -4.39033e-09) (6.17118e-09 -5.42737e-09 -4.88003e-09) (6.59239e-09 -5.63831e-09 -6.03749e-09) (7.07188e-09 -6.02405e-09 -6.64718e-09) (7.10009e-09 -5.9911e-09 -8.39427e-09)
2150          (-3.38736e-11 -1.0228e-11 -6.05498e-11) (9.80053e-10 -9.36957e-10 -3.28542e-10) (2.12581e-09 -1.69297e-09 -8.03691e-10) (3.04393e-09 -3.02152e-09 -2.24067e-09) (3.99612e-09 -3.73651e-09 -3.07975e-09) (5.17713e-09 -4.49402e-09 -3.87727e-09) (5.86455e-09 -5.18343e-09 -5.13987e-09) (6.423e-09 -5.6924e-09 -5.71112e-09) (6.83018e-09 -6.08139e-09 -7.61557e-09) (7.0902e-09 -6.10615e-09 -8.04869e-09) (7.27916e-09 -6.14004e-09 -9.34738e-09)
2200          (5.86899e-11 -3.00916e-11 4.05536e-11) (8.72223e-10 -8.64297e-10 -3.36184e-10) (2.15098e-09 -1.87822e-09 -1.44036e-09) (3.10165e-09 -2.79496e-09 -2.35594e-09) (4.15045e-09 -3.49885e-09 -3.11419e-09) (5.0199e-09 -4.54215e-09 -4.21658e-09) (5.92978e-09 -5.10806e-09 -4.67567e-09) (6.42069e-09 -5.59074e-09 -5.28521e-09) (6.94815e-09 -5.77471e-09 -6.54464e-09) (7.32081e-09 -6.00817e-09 -7.20184e-09) (7.26481e-09 -5.91557e-09 -8.35651e-09)
2250          (6.22891e-11 -6.36307e-11 4.03545e-11) (1.04238e-09 -1.0551e-09 -9.249e-10) (2.09844e-09 -1.72136e-09 -1.87881e-09) (2.90472e-09 -2.8062e-09 -3.16414e-09) (4.13753e-09 -3.82724e-09 -3.09065e-09) (4.83614e-09 -4.58122e-09 -4.11871e-09) (5.96484e-09 -5.34098e-09 -4.95391e-09) (6.5812e-09 -5.62e-09 -6.19207e-09) (6.98876e-09 -5.92536e-09 -6.61575e-09) (7.16667e-09 -6.11255e-09 -7.83083e-09) (7.41417e-09 -6.14198e-09 -8.14636e-09)
2300          (6.52749e-11 -1.30342e-11 4.13324e-12) (1.06327e-09 -7.83781e-10 -4.70296e-10) (2.05824e-09 -1.76081e-09 -1.63939e-09) (3.01981e-09 -2.75313e-09 -1.8738e-09) (4.2785e-09 -3.67706e-09 -3.14808e-09) (5.37276e-09 -4.40147e-09 -3.85377e-09) (6.07876e-09 -5.28925e-09 -4.63701e-09) (6.44245e-09 -5.91104e-09 -5.23536e-09) (7.27683e-09 -6.09738e-09 -6.41505e-09) (7.39563e-09 -6.3035e-09 -7.2173e-09) (7.40325e-09 -6.31556e-09 -8.35457e-09)
2350          (9.03104e-11 -2.94979e-12 8.06633e-11) (1.00479e-09 -1.05615e-09 -5.79777e-10) (2.23662e-09 -2.02099e-09 -1.39569e-09) (3.16025e-09 -2.86351e-09 -2.30047e-09) (4.11687e-09 -3.77697e-09 -2.80751e-09) (5.43349e-09 -4.76926e-09 -3.51186e-09) (6.07014e-09 -5.53845e-09 -5.14437e-09) (6.8849e-09 -5.9358e-09 -5.41846e-09) (7.35643e-09 -6.051e-09 -6.68238e-09) (7.34417e-09 -6.47549e-09 -6.52046e-09) (7.44002e-09 -6.39192e-09 -6.81379e-09)
2400          (2.16995e-11 1.39273e-11 2.90955e-11) (1.0164e-09 -1.05123e-09 -7.8313e-10) (2.37947e-09 -2.19395e-09 -2.81881e-09) (3.25614e-09 -3.13679e-09 -3.21717e-09) (4.22642e-09 -3.87618e-09 -4.22182e-09) (5.12375e-09 -4.52416e-09 -4.90065e-09) (5.87117e-09 -5.41361e-09 -5.74221e-09) (6.85272e-09 -5.93375e-09 -6.93856e-09) (7.23593e-09 -6.43694e-09 -7.72026e-09) (7.33946e-09 -6.61424e-09 -8.56726e-09) (7.49764e-09 -6.33878e-09 -9.98348e-09)
2450          (1.02517e-10 -6.19565e-11 -4.63848e-11) (1.32317e-09 -1.00223e-09 -1.38873e-09) (2.17595e-09 -1.94043e-09 -2.54303e-09) (3.19908e-09 -3.0352e-09 -2.9559e-09) (4.28726e-09 -3.96323e-09 -3.17542e-09) (5.35376e-09 -5.14182e-09 -4.31291e-09) (6.16594e-09 -5.81597e-09 -5.36654e-09) (6.82998e-09 -6.03825e-09 -6.77675e-09) (7.20446e-09 -6.15161e-09 -7.33923e-09) (7.41237e-09 -6.58293e-09 -8.44892e-09) (7.71658e-09 -6.27111e-09 -1.12434e-08)
2500          (1.34064e-10 -1.02461e-11 -8.87582e-11) (1.28005e-09 -9.00376e-10 -3.94608e-10) (2.27069e-09 -2.04722e-09 -1.05656e-09) (3.40848e-09 -2.87248e-09 -1.59293e-09) (4.30888e-09 -4.01685e-09 -2.6246e-09) (5.5287e-09 -4.67043e-09 -3.35055e-09) (6.33795e-09 -5.64522e-09 -3.60537e-09) (6.8123e-09 -6.24908e-09 -5.14229e-09) (7.3424e-09 -6.32344e-09 -5.84282e-09) (7.46133e-09 -6.44966e-09 -6.50289e-09) (7.78893e-09 -6.45973e-09 -6.92442e-09)
2550          (4.02365e-11 -8.60822e-11 8.80614e-11) (1.11963e-09 -1.20777e-09 -1.05505e-09) (2.42784e-09 -2.10031e-09 -1.9663e-09) (3.40038e-09 -3.20437e-09 -2.73457e-09) (4.51988e-09 -4.10209e-09 -3.66939e-09) (5.57822e-09 -5.0777e-09 -4.7176e-09) (6.36588e-09 -5.86091e-09 -5.57657e-09) (6.97589e-09 -6.27561e-09 -6.097e-09) (7.34352e-09 -6.66476e-09 -6.78568e-09) (7.76563e-09 -6.69357e-09 -7.71169e-09) (8.07708e-09 -6.62936e-09 -8.89385e-09)
2600          (4.40254e-11 -9.00389e-11 6.43172e-11) (1.22161e-09 -1.06056e-09 -1.02372e-09) (2.37174e-09 -2.10275e-09 -1.61936e-09) (3.25163e-09 -2.98623e-09 -2.27124e-09) (4.60337e-09 -4.13269e-09 -2.56201e-09) (5.57798e-09 -4.77516e-09 -4.05836e-09) (6.27621e-09 -5.60392e-09 -5.54626e-09) (6.95424e-09 -6.02076e-09 -5.19813e-09) (7.36283e-09 -6.56262e-09 -6.33161e-09) (8.09325e-09 -6.64014e-09 -6.73683e-09) (8.00142e-09 -6.63796e-09 -7.96026e-09)
2650          (6.3873e-11 -2.17278e-11 5.35914e-11) (1.05035e-09 -8.53954e-10 -8.13603e-10) (2.25215e-09 -2.09456e-09 -1.88391e-09) (3.58555e-09 -3.23008e-09 -2.23841e-09) (4.47002e-09 -3.7865e-09 -2.48241e-09) (5.35032e-09 -4.73998e-09 -4.48258e-09) (6.26773e-09 -5.62261e-09 -5.13297e-09) (7.05911e-09 -6.20204e-09 -6.28136e-09) (7.81328e-09 -6.65606e-09 -6.75437e-09) (8.19501e-09 -6.59372e-09 -7.45578e-09) (8.0757e-09 -6.55394e-09 -8.96441e-09)
2700          (6.11461e-11 -3.95768e-11 -6.94086e-11) (1.0327e-09 -9.66229e-10 -1.48312e-09) (2.08616e-09 -2.10422e-09 -1.99307e-09) (3.43812e-09 -3.24188e-09 -2.62646e-09) (4.67975e-09 -4.38326e-09 -4.12307e-09) (5.59248e-09 -5.20641e-09 -5.03903e-09) (6.52692e-09 -5.71122e-09 -5.37308e-09) (7.28701e-09 -6.29459e-09 -6.41913e-09) (7.67316e-09 -6.65978e-09 -6.66309e-09) (7.92258e-09 -6.75212e-09 -7.73463e-09) (8.15665e-09 -6.88752e-09 -7.53099e-09)
2750          (5.97338e-11 -6.34605e-11 -1.12795e-10) (1.19152e-09 -1.15987e-09 -4.93064e-10) (2.50738e-09 -2.01362e-09 -1.82169e-09) (3.46387e-09 -3.21531e-09 -2.13533e-09) (4.80119e-09 -4.18546e-09 -3.43229e-09) (5.75523e-09 -4.93013e-09 -4.60128e-09) (6.68974e-09 -5.8146e-09 -5.34912e-09) (7.32682e-09 -6.41157e-09 -5.7581e-09) (7.81987e-09 -6.81451e-09 -6.72553e-09) (8.15588e-09 -6.96025e-09 -7.96864e-09) (8.22104e-09 -6.92878e-09 -6.33937e-09)
2800          (1.40552e-10 -1.37366e-10 2.4297e-11) (1.0827e-09 -1.06413e-09 -1.09795e-09) (2.32582e-09 -2.10087e-09 -1.76378e-09) (3.6337e-09 -2.80971e-09 -2.24314e-09) (4.81874e-09 -4.10143e-09 -2.95021e-09) (5.90133e-09 -5.18861e-09 -3.9027e-09) (6.76979e-09 -5.85613e-09 -4.81172e-09) (7.4269e-09 -6.51548e-09 -6.1232e-09) (8.03088e-09 -6.85068e-09 -6.29608e-09) (7.94319e-09 -7.00132e-09 -7.75051e-09) (8.23245e-09 -6.97049e-09 -7.99607e-09)
2850          (3.4559e-11 4.36615e-11 -1.36005e-10) (1.08538e-09 -1.12982e-09 -1.02463e-09) (2.5087e-09 -2.33545e-09 -1.68013e-09) (3.39259e-09 -3.2037e-09 -2.97394e-09) (4.70755e-09 -4.18445e-09 -4.26173e-09) (5.91874e-09 -4.94069e-09 -4.84904e-09) (6.83629e-09 -5.78253e-09 -5.79102e-09) (7.51207e-09 -6.74021e-09 -6.29783e-09) (7.95074e-09 -6.96417e-09 -7.89482e-09) (8.36761e-09 -6.91017e-09 -8.45419e-09) (8.54996e-09 -6.93011e-09 -9.30751e-09)
2900          (8.631e-11 -4.87133e-11 4.44836e-12) (1.16934e-09 -1.14041e-09 -4.79319e-10) (2.4881e-09 -2.02846e-09 -2.0886e-09) (3.68353e-09 -3.23776e-09 -2.60512e-09) (4.63009e-09 -4.25634e-09 -3.50059e-09) (5.68046e-09 -5.24705e-09 -4.08173e-09) (6.73091e-09 -6.05504e-09 -5.04612e-09) (7.2522e-09 -6.6649e-09 -5.75838e-09) (7.86132e-09 -7.00553e-09 -6.7648e-09) (8.26037e-09 -7.07651e-09 -7.40907e-09) (8.45573e-09 -7.03029e-09 -8.7023e-09)
2950          (1.37234e-10 -9.56269e-12 -1.40627e-10) (9.91347e-10 -9.91117e-10 -3.3439e-10) (2.36134e-09 -2.24373e-09 -1.21016e-09) (3.86514e-09 -3.28976e-09 -2.31021e-09) (5.0221e-09 -4.42264e-09 -3.33692e-09) (5.83524e-09 -5.42484e-09 -4.32001e-09) (6.72374e-09 -6.0319e-09 -4.84197e-09) (7.6035e-09 -6.74897e-09 -6.07798e-09) (7.98396e-09 -6.88378e-09 -6.53029e-09) (8.65187e-09 -7.03979e-09 -7.69448e-09) (8.6242e-09 -7.13548e-09 -8.23387e-09)
3000          (1.14442e-10 -2.46662e-11 1.80254e-11) (1.47957e-09 -1.1456e-09 -7.79114e-10) (2.634e-09 -2.33238e-09 -1.55823e-09) (3.7199e-09 -3.20973e-09 -2.28258e-09) (4.56142e-09 -4.59387e-09 -3.65265e-09) (5.97969e-09 -5.45169e-09 -3.81568e-09) (6.94662e-09 -5.99397e-09 -4.99468e-09) (7.49551e-09 -6.48038e-09 -5.41022e-09) (8.09326e-09 -7.30513e-09 -7.01172e-09) (8.48676e-09 -7.5185e-09 -7.67749e-09) (8.65337e-09 -7.15959e-09 -8.6655e-09)
3050          (6.00581e-11 -1.27595e-10 -7.94892e-12) (1.33974e-09 -9.64206e-10 -1.29168e-09) (2.73247e-09 -2.07429e-09 -1.71829e-09) (3.78747e-09 -3.19428e-09 -2.33811e-09) (4.69817e-09 -4.37653e-09 -2.55016e-09) (5.9493e-09 -5.45519e-09 -3.92796e-09) (7.06219e-09 -6.20581e-09 -4.75166e-09) (7.80244e-09 -6.96156e-09 -5.62961e-09) (8.42362e-09 -7.20697e-09 -6.56173e-09) (8.63239e-09 -7.49796e-09 -7.22454e-09) (8.60538e-09 -7.32351e-09 -7.41608e-09)
3100          (1.14803e-10 -6.01805e-11 -8.04617e-11) (1.24663e-09 -1.17421e-09 -1.1884e-09) (2.52499e-09 -2.42124e-09 -1.84698e-09) (3.76791e-09 -3.2989e-09 -1.99921e-09) (5.08266e-09 -4.17425e-09 -3.36023e-09) (6.26081e-09 -5.36385e-09 -3.81426e-09) (7.11646e-09 -6.31867e-09 -4.59329e-09) (7.79872e-09 -6.7407e-09 -4.60067e-09) (8.41162e-09 -7.16444e-09 -5.73983e-09) (8.49902e-09 -7.63201e-09 -6.92417e-09) (8.40355e-09 -7.61607e-09 -7.0784e-09)
3150          (1.0586e-10 -1.8077e-10 2.02877e-10) (1.21891e-09 -1.16068e-09 -8.76171e-10) (2.45861e-09 -2.27012e-09 -1.80454e-09) (3.82404e-09 -3.3251e-09 -1.94617e-09) (4.8764e-09 -4.64133e-09 -3.02548e-09) (6.11392e-09 -5.68348e-09 -4.3771e-09) (7.13929e-09 -6.3057e-09 -4.7399e-09) (7.99423e-09 -7.12802e-09 -6.28025e-09) (8.25704e-09 -7.3668e-09 -6.86474e-09) (8.79578e-09 -7.2919e-09 -7.43865e-09) (8.85107e-09 -7.43265e-09 -9.10777e-09)
3200          (-3.51451e-12 -9.36833e-11 -8.03752e-11) (1.24682e-09 -1.28967e-09 -1.20812e-09) (2.65577e-09 -2.13693e-09 -1.46871e-09) (4.01487e-09 -3.38921e-09 -2.51172e-09) (4.86074e-09 -4.85177e-09 -3.17899e-09) (6.1729e-09 -5.58815e-09 -4.62962e-09) (7.27686e-09 -6.46129e-09 -5.04465e-09) (7.95308e-09 -6.78868e-09 -5.29497e-09) (8.37097e-09 -7.49038e-09 -5.96541e-09) (8.85274e-09 -7.33014e-09 -7.0194e-09) (8.7633e-09 -7.59047e-09 -7.93843e-09)
3250          (5.49001e-11 -3.82414e-11 3.85904e-11) (1.17547e-09 -1.01264e-09 -8.54353e-10) (2.34491e-09 -2.19285e-09 -1.54528e-09) (4.08555e-09 -3.54673e-09 -2.15521e-09) (5.22103e-09 -4.68566e-09 -3.32021e-09) (6.27564e-09 -5.66344e-09 -3.90439e-09) (7.24962e-09 -6.1764e-09 -5.07542e-09) (7.80445e-09 -6.8564e-09 -5.48387e-09) (8.39117e-09 -7.08206e-09 -6.23102e-09) (8.79946e-09 -7.66849e-09 -7.21708e-09) (8.86007e-09 -7.58948e-09 -7.6403e-09)