# Probe 0 (0.0015 0.0015 0)
# Probe 1 (0.0015 0.0015 0.002)
# Probe 2 (0.0015 0.0015 0.004)
# Probe 3 (0.0015 0.0015 0.006)
# Probe 4 (0.0015 0.0015 0.008)
# Probe 5 (0.0015 0.0015 0.01)
# Probe 6 (0.0015 0.0015 0.012)
# Probe 7 (0.0015 0.0015 0.014)
# Probe 8 (0.0015 0.0015 0.016)
# Probe 9 (0.0015 0.0015 0.018)
# Probe 10 (0.0015 0.0015 0.02)
# Time        0             1             2             3             4             5             6             7             8             9             10           
50            (-131.599 44.3077 10139.9) (-131.599 44.3077 10139.9) (-131.599 44.3077 10139.9) (-131.599 44.3077 10139.9) (-131.599 44.3077 10139.9) (-131.599 44.3077 10139.9) (22.1604 1.85045 1463.64) (22.1604 1.85045 1463.64) (22.1604 1.85045 1463.64) (22.1604 1.85045 1463.64) (22.1604 1.85045 1463.64)
100           (-82.1077 61.9135 8683.26) (-82.1077 61.9135 8683.26) (-82.1077 61.9135 8683.26) (-82.1077 61.9135 8683.26) (-82.1077 61.9135 8683.26) (-82.1077 61.9135 8683.26) (30.258 35.5853 3123.47) (30.258 35.5853 3123.47) (30.258 35.5853 3123.47) (30.258 35.5853 3123.47) (30.258 35.5853 3123.47)
150           (-78.522 20.8898 7490.57) (-78.522 20.8898 7490.57) (-78.522 20.8898 7490.57) (-78.522 20.8898 7490.57) (-78.522 20.8898 7490.57) (-78.522 20.8898 7490.57) (-9.29805 82.0902 4247.41) (-9.29805 82.0902 4247.41) (-9.29805 82.0902 4247.41) (-9.29805 82.0902 4247.41) (-9.29805 82.0902 4247.41)
200           (-72.9631 17.9012 6645.31) (-72.9631 17.9012 6645.31) (-72.9631 17.9012 6645.31) (-72.9631 17.9012 6645.31) (-72.9631 17.9012 6645.31) (-72.9631 17.9012 6645.31) (-39.6059 105.908 4914.8) (-39.6059 105.908 4914.8) (-39.6059 105.908 4914.8) (-39.6059 105.908 4914.8) (-39.6059 105.908 4914.8)
250           (-68.2066 17.4215 6114.53) (-68.2066 17.4215 6114.53) (-68.2066 17.4215 6114.53) (-68.2066 17.4215 6114.53) (-68.2066 17.4215 6114.53) (-68.2066 17.4215 6114.53) (-45.1326 115.651 5301.96) (-45.1326 115.651 5301.96) (-45.1326 115.651 5301.96) (-45.1326 115.651 5301.96) (-45.1326 115.651 5301.96)
300           (-65.308 16.3941 5816.75) (-65.308 16.3941 5816.75) (-65.308 16.3941 5816.75) (-65.308 16.3941 5816.75) (-65.308 16.3941 5816.75) (-65.308 16.3941 5816.75) (-45.0995 125.3 5517.46) (-45.0995 125.3 5517.46) (-45.0995 125.3 5517.46) (-45.0995 125.3 5517.46) (-45.0995 125.3 5517.46)
350           (-63.8894 15.723 5667.27) (-63.8894 15.723 5667.27) (-63.8894 15.723 5667.27) (-63.8894 15.723 5667.27) (-63.8894 15.723 5667.27) (-63.8894 15.723 5667.27) (-44.9619 131.742 5626.84) (-44.9619 131.742 5626.84) (-44.9619 131.742 5626.84) (-44.9619 131.742 5626.84) (-44.9619 131.742 5626.84)
400           (-63.2003 15.387 5597.65) (-63.2003 15.387 5597.65) (-63.2003 15.387 5597.65) (-63.2003 15.387 5597.65) (-63.2003 15.387 5597.65) (-63.2003 15.387 5597.65) (-44.9114 134.878 5678.33) (-44.9114 134.878 5678.33) (-44.9114 134.878 5678.33) (-44.9114 134.878 5678.33) (-44.9114 134.878 5678.33)
450           (-62.884 15.2336 5566.56) (-62.884 15.2336 5566.56) (-62.884 15.2336 5566.56) (-62.884 15.2336 5566.56) (-62.884 15.2336 5566.56) (-62.884 15.2336 5566.56) (-44.8819 136.24 5701.49) (-44.8819 136.24 5701.49) (-44.8819 136.24 5701.49) (-44.8819 136.24 5701.49) (-44.8819 136.24 5701.49)
500           (-62.7556 15.164 5552.96) (-62.7556 15.164 5552.96) (-62.7556 15.164 5552.96) (-62.7556 15.164 5552.96) (-62.7556 15.164 5552.96) (-62.7556 15.164 5552.96) (-44.8913 136.809 5711.65) (-44.8913 136.809 5711.65) (-44.8913 136.809 5711.65) (-44.8913 136.809 5711.65) (-44.8913 136.809 5711.65)
550           (-62.6979 15.1336 5547.09) (-62.6979 15.1336 5547.09) (-62.6979 15.1336 5547.09) (-62.6979 15.1336 5547.09) (-62.6979 15.1336 5547.09) (-62.6979 15.1336 5547.09) (-44.8906 137.049 5716.06) (-44.8906 137.049 5716.06) (-44.8906 137.049 5716.06) (-44.8906 137.049 5716.06) (-44.8906 137.049 5716.06)
600           (-62.678 15.1179 5544.6) (-62.678 15.1179 5544.6) (-62.678 15.1179 5544.6) (-62.678 15.1179 5544.6) (-62.678 15.1179 5544.6) (-62.678 15.1179 5544.6) (-44.8954 137.145 5717.92) (-44.8954 137.145 5717.92) (-44.8954 137.145 5717.92) (-44.8954 137.145 5717.92) (-44.8954 137.145 5717.92)
650           (-62.6692 15.1121 5543.52) (-62.6692 15.1121 5543.52) (-62.6692 15.1121 5543.52) (-62.6692 15.1121 5543.52) (-62.6692 15.1121 5543.52) (-62.6692 15.1121 5543.52) (-44.8927 137.19 5718.73) (-44.8927 137.19 5718.73) (-44.8927 137.19 5718.73) (-44.8927 137.19 5718.73) (-44.8927 137.19 5718.73)
700           (-62.6664 15.1167 5543.09) (-62.6664 15.1167 5543.09) (-62.6664 15.1167 5543.09) (-62.6664 15.1167 5543.09) (-62.6664 15.1167 5543.09) (-62.6664 15.1167 5543.09) (-44.9143 137.206 5719.05) (-44.9143 137.206 5719.05) (-44.9143 137.206 5719.05) (-44.9143 137.206 5719.05) (-44.9143 137.206 5719.05)
750           (-62.664 15.1152 5542.89) (-62.664 15.1152 5542.89) (-62.664 15.1152 5542.89) (-62.664 15.1152 5542.89) (-62.664 15.1152 5542.89) (-62.664 15.1152 5542.89) (-44.9132 137.214 5719.2) (-44.9132 137.214 5719.2) (-44.9132 137.214 5719.2) (-44.9132 137.214 5719.2) (-44.9132 137.214 5719.2)
800           (-62.6618 15.1148 5542.79) (-62.6618 15.1148 5542.79) (-62.6618 15.1148 5542.79) (-62.6618 15.1148 5542.79) (-62.6618 15.1148 5542.79) (-62.6618 15.1148 5542.79) (-44.9117 137.217 5719.27) (-44.9117 137.217 5719.27) (-44.9117 137.217 5719.27) (-44.9117 137.217 5719.27) (-44.9117 137.217 5719.27)
850           (-62.6618 15.1148 5542.79) (-62.6618 15.1148 5542.79) (-62.6618 15.1148 5542.79) (-62.6618 15.1148 5542.79) (-62.6618 15.1148 5542.79) (-62.6618 15.1148 5542.79) (-44.9117 137.217 5719.27) (-44.9117 137.217 5719.27) (-44.9117 137.217 5719.27) (-44.9117 137.217 5719.27) (-44.9117 137.217 5719.27)
900           (-62.6618 15.1148 5542.79) (-62.6618 15.1148 5542.79) (-62.6618 15.1148 5542.79) (-62.6618 15.1148 5542.79) (-62.6618 15.1148 5542.79) (-62.6618 15.1148 5542.79) (-44.9117 137.217 5719.27) (-44.9117 137.217 5719.27) (-44.9117 137.217 5719.27) (-44.9117 137.217 5719.27) (-44.9117 137.217 5719.27)
950           (-62.6618 15.1148 5542.79) (-62.6618 15.1148 5542.79) (-62.6618 15.1148 5542.79) (-62.6618 15.1148 5542.79) (-62.6618 15.1148 5542.79) (-62.6618 15.1148 5542.79) (-44.9117 137.217 5719.27) (-44.9117 137.217 5719.27) (-44.9117 137.217 5719.27) (-44.9117 137.217 5719.27) (-44.9117 137.217 5719.27)
1000          (-62.6618 15.1148 5542.79) (-62.6618 15.1148 5542.79) (-62.6618 15.1148 5542.79) (-62.6618 15.1148 5542.79) (-62.6618 15.1148 5542.79) (-62.6618 15.1148 5542.79) (-44.9117 137.217 5719.27) (-44.9117 137.217 5719.27) (-44.9117 137.217 5719.27) (-44.9117 137.217 5719.27) (-44.9117 137.217 5719.27)
1050          (-62.6618 15.1148 5542.79) (-62.6618 15.1148 5542.79) (-62.6618 15.1148 5542.79) (-62.6618 15.1148 5542.79) (-62.6618 15.1148 5542.79) (-62.6618 15.1148 5542.79) (-44.9117 137.217 5719.27) (-44.9117 137.217 5719.27) (-44.9117 137.217 5719.27) (-44.9117 137.217 5719.27) (-44.9117 137.217 5719.27)
1100          (-62.6618 15.1148 5542.79) (-62.6618 15.1148 5542.79) (-62.6618 15.1148 5542.79) (-62.6618 15.1148 5542.79) (-62.6618 15.1148 5542.79) (-62.6618 15.1148 5542.79) (-44.9117 137.217 5719.27) (-44.9117 137.217 5719.27) (-44.9117 137.217 5719.27) (-44.9117 137.217 5719.27) (-44.9117 137.217 5719.27)
1150          (-62.6618 15.1148 5542.79) (-62.6618 15.1148 5542.79) (-62.6618 15.1148 5542.79) (-62.6618 15.1148 5542.79) (-62.6618 15.1148 5542.79) (-62.6618 15.1148 5542.79) (-44.9117 137.217 5719.27) (-44.9117 137.217 5719.27) (-44.9117 137.217 5719.27) (-44.9117 137.217 5719.27) (-44.9117 137.217 5719.27)
1200          (-62.6618 15.1148 5542.79) (-62.6618 15.1148 5542.79) (-62.6618 15.1148 5542.79) (-62.6618 15.1148 5542.79) (-62.6618 15.1148 5542.79) (-62.6618 15.1148 5542.79) (-44.9117 137.217 5719.27) (-44.9117 137.217 5719.27) (-44.9117 137.217 5719.27) (-44.9117 137.217 5719.27) (-44.9117 137.217 5719.27)
1250          (-62.6618 15.1148 5542.79) (-62.6618 15.1148 5542.79) (-62.6618 15.1148 5542.79) (-62.6618 15.1148 5542.79) (-62.6618 15.1148 5542.79) (-62.6618 15.1148 5542.79) (-44.9117 137.217 5719.27) (-44.9117 137.217 5719.27) (-44.9117 137.217 5719.27) (-44.9117 137.217 5719.27) (-44.9117 137.217 5719.27)
1300          (-62.6618 15.1148 5542.79) (-62.6618 15.1148 5542.79) (-62.6618 15.1148 5542.79) (-62.6618 15.1148 5542.79) (-62.6618 15.1148 5542.79) (-62.6618 15.1148 5542.79) (-44.9117 137.217 5719.27) (-44.9117 137.217 5719.27) (-44.9117 137.217 5719.27) (-44.9117 137.217 5719.27) (-44.9117 137.217 5719.27)
1350          (-62.6618 15.1148 5542.79) (-62.6618 15.1148 5542.79) (-62.6618 15.1148 5542.79) (-62.6618 15.1148 5542.79) (-62.6618 15.1148 5542.79) (-62.6618 15.1148 5542.79) (-44.9117 137.217 5719.27) (-44.9117 137.217 5719.27) (-44.9117 137.217 5719.27) (-44.9117 137.217 5719.27) (-44.9117 137.217 5719.27)
1400          (-62.6618 15.1148 5542.79) (-62.6618 15.1148 5542.79) (-62.6618 15.1148 5542.79) (-62.6618 15.1148 5542.79) (-62.6618 15.1148 5542.79) (-62.6618 15.1148 5542.79) (-44.9117 137.217 5719.27) (-44.9117 137.217 5719.27) (-44.9117 137.217 5719.27) (-44.9117 137.217 5719.27) (-44.9117 137.217 5719.27)
1450          (-62.6618 15.1148 5542.79) (-62.6618 15.1148 5542.79) (-62.6618 15.1148 5542.79) (-62.6618 15.1148 5542.79) (-62.6618 15.1148 5542.79) (-62.6618 15.1148 5542.79) (-44.9117 137.217 5719.27) (-44.9117 137.217 5719.27) (-44.9117 137.217 5719.27) (-44.9117 137.217 5719.27) (-44.9117 137.217 5719.27)
1500          (-62.6618 15.1148 5542.79) (-62.6618 15.1148 5542.79) (-62.6618 15.1148 5542.79) (-62.6618 15.1148 5542.79) (-62.6618 15.1148 5542.79) (-62.6618 15.1148 5542.79) (-44.9117 137.217 5719.27) (-44.9117 137.217 5719.27) (-44.9117 137.217 5719.27) (-44.9117 137.217 5719.27) (-44.9117 137.217 5719.27)
1550          (-62.6618 15.1148 5542.79) (-62.6618 15.1148 5542.79) (-62.6618 15.1148 5542.79) (-62.6618 15.1148 5542.79) (-62.6618 15.1148 5542.79) (-62.6618 15.1148 5542.79) (-44.9117 137.217 5719.27) (-44.9117 137.217 5719.27) (-44.9117 137.217 5719.27) (-44.9117 137.217 5719.27) (-44.9117 137.217 5719.27)
1600          (-62.6618 15.1148 5542.79) (-62.6618 15.1148 5542.79) (-62.6618 15.1148 5542.79) (-62.6618 15.1148 5542.79) (-62.6618 15.1148 5542.79) (-62.6618 15.1148 5542.79) (-44.9117 137.217 5719.27) (-44.9117 137.217 5719.27) (-44.9117 137.217 5719.27) (-44.9117 137.217 5719.27) (-44.9117 137.217 5719.27)
1650          (-62.6618 15.1148 5542.79) (-62.6618 15.1148 5542.79) (-62.6618 15.1148 5542.79) (-62.6618 15.1148 5542.79) (-62.6618 15.1148 5542.79) (-62.6618 15.1148 5542.79) (-44.9117 137.217 5719.27) (-44.9117 137.217 5719.27) (-44.9117 137.217 5719.27) (-44.9117 137.217 5719.27) (-44.9117 137.217 5719.27)
1700          (-62.6618 15.1148 5542.79) (-62.6618 15.1148 5542.79) (-62.6618 15.1148 5542.79) (-62.6618 15.1148 5542.79) (-62.6618 15.1148 5542.79) (-62.6618 15.1148 5542.79) (-44.9117 137.217 5719.27) (-44.9117 137.217 5719.27) (-44.9117 137.217 5719.27) (-44.9117 137.217 5719.27) (-44.9117 137.217 5719.27)
1750          (-62.6618 15.1148 5542.79) (-62.6618 15.1148 5542.79) (-62.6618 15.1148 5542.79) (-62.6618 15.1148 5542.79) (-62.6618 15.1148 5542.79) (-62.6618 15.1148 5542.79) (-44.9117 137.217 5719.27) (-44.9117 137.217 5719.27) (-44.9117 137.217 5719.27) (-44.9117 137.217 5719.27) (-44.9117 137.217 5719.27)
1800          (-62.6618 15.1148 5542.79) (-62.6618 15.1148 5542.79) (-62.6618 15.1148 5542.79) (-62.6618 15.1148 5542.79) (-62.6618 15.1148 5542.79) (-62.6618 15.1148 5542.79) (-44.9117 137.217 5719.27) (-44.9117 137.217 5719.27) (-44.9117 137.217 5719.27) (-44.9117 137.217 5719.27) (-44.9117 137.217 5719.27)
1850          (-62.6618 15.1148 5542.79) (-62.6618 15.1148 5542.79) (-62.6618 15.1148 5542.79) (-62.6618 15.1148 5542.79) (-62.6618 15.1148 5542.79) (-62.6618 15.1148 5542.79) (-44.9117 137.217 5719.27) (-44.9117 137.217 5719.27) (-44.9117 137.217 5719.27) (-44.9117 137.217 5719.27) (-44.9117 137.217 5719.27)
1900          (-62.6618 15.1148 5542.79) (-62.6618 15.1148 5542.79) (-62.6618 15.1148 5542.79) (-62.6618 15.1148 5542.79) (-62.6618 15.1148 5542.79) (-62.6618 15.1148 5542.79) (-44.9117 137.217 5719.27) (-44.9117 137.217 5719.27) (-44.9117 137.217 5719.27) (-44.9117 137.217 5719.27) (-44.9117 137.217 5719.27)
1950          (-62.6618 15.1148 5542.79) (-62.6618 15.1148 5542.79) (-62.6618 15.1148 5542.79) (-62.6618 15.1148 5542.79) (-62.6618 15.1148 5542.79) (-62.6618 15.1148 5542.79) (-44.9117 137.217 5719.27) (-44.9117 137.217 5719.27) (-44.9117 137.217 5719.27) (-44.9117 137.217 5719.27) (-44.9117 137.217 5719.27)
2000          (-62.6618 15.1148 5542.79) (-62.6618 15.1148 5542.79) (-62.6618 15.1148 5542.79) (-62.6618 15.1148 5542.79) (-62.6618 15.1148 5542.79) (-62.6618 15.1148 5542.79) (-44.9117 137.217 5719.27) (-44.9117 137.217 5719.27) (-44.9117 137.217 5719.27) (-44.9117 137.217 5719.27) (-44.9117 137.217 5719.27)
2050          (-62.6618 15.1148 5542.79) (-62.6618 15.1148 5542.79) (-62.6618 15.1148 5542.79) (-62.6618 15.1148 5542.79) (-62.6618 15.1148 5542.79) (-62.6618 15.1148 5542.79) (-44.9117 137.217 5719.27) (-44.9117 137.217 5719.27) (-44.9117 137.217 5719.27) (-44.9117 137.217 5719.27) (-44.9117 137.217 5719.27)
2100          (-62.6618 15.1148 5542.79) (-62.6618 15.1148 5542.79) (-62.6618 15.1148 5542.79) (-62.6618 15.1148 5542.79) (-62.6618 15.1148 5542.79) (-62.6618 15.1148 5542.79) (-44.9117 137.217 5719.27) (-44.9117 137.217 5719.27) (-44.9117 137.217 5719.27) (-44.9117 137.217 5719.27) (-44.9117 137.217 5719.27)
2150          (-62.6618 15.1148 5542.79) (-62.6618 15.1148 5542.79) (-62.6618 15.1148 5542.79) (-62.6618 15.1148 5542.79) (-62.6618 15.1148 5542.79) (-62.6618 15.1148 5542.79) (-44.9117 137.217 5719.27) (-44.9117 137.217 5719.27) (-44.9117 137.217 5719.27) (-44.9117 137.217 5719.27) (-44.9117 137.217 5719.27)
2200          (-62.6618 15.1148 5542.79) (-62.6618 15.1148 5542.79) (-62.6618 15.1148 5542.79) (-62.6618 15.1148 5542.79) (-62.6618 15.1148 5542.79) (-62.6618 15.1148 5542.79) (-44.9117 137.217 5719.27) (-44.9117 137.217 5719.27) (-44.9117 137.217 5719.27) (-44.9117 137.217 5719.27) (-44.9117 137.217 5719.27)
2250          (-62.6618 15.1148 5542.79) (-62.6618 15.1148 5542.79) (-62.6618 15.1148 5542.79) (-62.6618 15.1148 5542.79) (-62.6618 15.1148 5542.79) (-62.6618 15.1148 5542.79) (-44.9117 137.217 5719.27) (-44.9117 137.217 5719.27) (-44.9117 137.217 5719.27) (-44.9117 137.217 5719.27) (-44.9117 137.217 5719.27)
2300          (-62.6618 15.1148 5542.79) (-62.6618 15.1148 5542.79) (-62.6618 15.1148 5542.79) (-62.6618 15.1148 5542.79) (-62.6618 15.1148 5542.79) (-62.6618 15.1148 5542.79) (-44.9117 137.217 5719.27) (-44.9117 137.217 5719.27) (-44.9117 137.217 5719.27) (-44.9117 137.217 5719.27) (-44.9117 137.217 5719.27)
2350          (-62.6618 15.1148 5542.79) (-62.6618 15.1148 5542.79) (-62.6618 15.1148 5542.79) (-62.6618 15.1148 5542.79) (-62.6618 15.1148 5542.79) (-62.6618 15.1148 5542.79) (-44.9117 137.217 5719.27) (-44.9117 137.217 5719.27) (-44.9117 137.217 5719.27) (-44.9117 137.217 5719.27) (-44.9117 137.217 5719.27)
2400          (-62.6618 15.1148 5542.79) (-62.6618 15.1148 5542.79) (-62.6618 15.1148 5542.79) (-62.6618 15.1148 5542.79) (-62.6618 15.1148 5542.79) (-62.6618 15.1148 5542.79) (-44.9117 137.217 5719.27) (-44.9117 137.217 5719.27) (-44.9117 137.217 5719.27) (-44.9117 137.217 5719.27) (-44.9117 137.217 5719.27)
2450          (-62.6618 15.1148 5542.79) (-62.6618 15.1148 5542.79) (-62.6618 15.1148 5542.79) (-62.6618 15.1148 5542.79) (-62.6618 15.1148 5542.79) (-62.6618 15.1148 5542.79) (-44.9117 137.217 5719.27) (-44.9117 137.217 5719.27) (-44.9117 137.217 5719.27) (-44.9117 137.217 5719.27) (-44.9117 137.217 5719.27)
2500          (-62.6618 15.1148 5542.79) (-62.6618 15.1148 5542.79) (-62.6618 15.1148 5542.79) (-62.6618 15.1148 5542.79) (-62.6618 15.1148 5542.79) (-62.6618 15.1148 5542.79) (-44.9117 137.217 5719.27) (-44.9117 137.217 5719.27) (-44.9117 137.217 5719.27) (-44.9117 137.217 5719.27) (-44.9117 137.217 5719.27)
2550          (-62.6618 15.1148 5542.79) (-62.6618 15.1148 5542.79) (-62.6618 15.1148 5542.79) (-62.6618 15.1148 5542.79) (-62.6618 15.1148 5542.79) (-62.6618 15.1148 5542.79) (-44.9117 137.217 5719.27) (-44.9117 137.217 5719.27) (-44.9117 137.217 5719.27) (-44.9117 137.217 5719.27) (-44.9117 137.217 5719.27)
2600          (-62.6618 15.1148 5542.79) (-62.6618 15.1148 5542.79) (-62.6618 15.1148 5542.79) (-62.6618 15.1148 5542.79) (-62.6618 15.1148 5542.79) (-62.6618 15.1148 5542.79) (-44.9117 137.217 5719.27) (-44.9117 137.217 5719.27) (-44.9117 137.217 5719.27) (-44.9117 137.217 5719.27) (-44.9117 137.217 5719.27)
2650          (-62.6618 15.1148 5542.79) (-62.6618 15.1148 5542.79) (-62.6618 15.1148 5542.79) (-62.6618 15.1148 5542.79) (-62.6618 15.1148 5542.79) (-62.6618 15.1148 5542.79) (-44.9117 137.217 5719.27) (-44.9117 137.217 5719.27) (-44.9117 137.217 5719.27) (-44.9117 137.217 5719.27) (-44.9117 137.217 5719.27)
2700          (-62.6618 15.1148 5542.79) (-62.6618 15.1148 5542.79) (-62.6618 15.1148 5542.79) (-62.6618 15.1148 5542.79) (-62.6618 15.1148 5542.79) (-62.6618 15.1148 5542.79) (-44.9117 137.217 5719.27) (-44.9117 137.217 5719.27) (-44.9117 137.217 5719.27) (-44.9117 137.217 5719.27) (-44.9117 137.217 5719.27)
2750          (-62.6618 15.1148 5542.79) (-62.6618 15.1148 5542.79) (-62.6618 15.1148 5542.79) (-62.6618 15.1148 5542.79) (-62.6618 15.1148 5542.79) (-62.6618 15.1148 5542.79) (-44.9117 137.217 5719.27) (-44.9117 137.217 5719.27) (-44.9117 137.217 5719.27) (-44.9117 137.217 5719.27) (-44.9117 137.217 5719.27)
2800          (-62.6618 15.1148 5542.79) (-62.6618 15.1148 5542.79) (-62.6618 15.1148 5542.79) (-62.6618 15.1148 5542.79) (-62.6618 15.1148 5542.79) (-62.6618 15.1148 5542.79) (-44.9117 137.217 5719.27) (-44.9117 137.217 5719.27) (-44.9117 137.217 5719.27) (-44.9117 137.217 5719.27) (-44.9117 137.217 5719.27)
2850          (-62.6618 15.1148 5542.79) (-62.6618 15.1148 5542.79) (-62.6618 15.1148 5542.79) (-62.6618 15.1148 5542.79) (-62.6618 15.1148 5542.79) (-62.6618 15.1148 5542.79) (-44.9117 137.217 5719.27) (-44.9117 137.217 5719.27) (-44.9117 137.217 5719.27) (-44.9117 137.217 5719.27) (-44.9117 137.217 5719.27)
2900          (-62.6618 15.1148 5542.79) (-62.6618 15.1148 5542.79) (-62.6618 15.1148 5542.79) (-62.6618 15.1148 5542.79) (-62.6618 15.1148 5542.79) (-62.6618 15.1148 5542.79) (-44.9117 137.217 5719.27) (-44.9117 137.217 5719.27) (-44.9117 137.217 5719.27) (-44.9117 137.217 5719.27) (-44.9117 137.217 5719.27)
2950          (-62.6618 15.1148 5542.79) (-62.6618 15.1148 5542.79) (-62.6618 15.1148 5542.79) (-62.6618 15.1148 5542.79) (-62.6618 15.1148 5542.79) (-62.6618 15.1148 5542.79) (-44.9117 137.217 5719.27) (-44.9117 137.217 5719.27) (-44.9117 137.217 5719.27) (-44.9117 137.217 5719.27) (-44.9117 137.217 5719.27)
3000          (-62.6618 15.1148 5542.79) (-62.6618 15.1148 5542.79) (-62.6618 15.1148 5542.79) (-62.6618 15.1148 5542.79) (-62.6618 15.1148 5542.79) (-62.6618 15.1148 5542.79) (-44.9117 137.217 5719.27) (-44.9117 137.217 5719.27) (-44.9117 137.217 5719.27) (-44.9117 137.217 5719.27) (-44.9117 137.217 5719.27)
3050          (-62.6618 15.1148 5542.79) (-62.6618 15.1148 5542.79) (-62.6618 15.1148 5542.79) (-62.6618 15.1148 5542.79) (-62.6618 15.1148 5542.79) (-62.6618 15.1148 5542.79) (-44.9117 137.217 5719.27) (-44.9117 137.217 5719.27) (-44.9117 137.217 5719.27) (-44.9117 137.217 5719.27) (-44.9117 137.217 5719.27)
3100          (-62.6618 15.1148 5542.79) (-62.6618 15.1148 5542.79) (-62.6618 15.1148 5542.79) (-62.6618 15.1148 5542.79) (-62.6618 15.1148 5542.79) (-62.6618 15.1148 5542.79) (-44.9117 137.217 5719.27) (-44.9117 137.217 5719.27) (-44.9117 137.217 5719.27) (-44.9117 137.217 5719.27) (-44.9117 137.217 5719.27)
3150          (-62.6618 15.1148 5542.79) (-62.6618 15.1148 5542.79) (-62.6618 15.1148 5542.79) (-62.6618 15.1148 5542.79) (-62.6618 15.1148 5542.79) (-62.6618 15.1148 5542.79) (-44.9117 137.217 5719.27) (-44.9117 137.217 5719.27) (-44.9117 137.217 5719.27) (-44.9117 137.217 5719.27) (-44.9117 137.217 5719.27)
3200          (-62.6618 15.1148 5542.79) (-62.6618 15.1148 5542.79) (-62.6618 15.1148 5542.79) (-62.6618 15.1148 5542.79) (-62.6618 15.1148 5542.79) (-62.6618 15.1148 5542.79) (-44.9117 137.217 5719.27) (-44.9117 137.217 5719.27) (-44.9117 137.217 5719.27) (-44.9117 137.217 5719.27) (-44.9117 137.217 5719.27)
3250          (-62.6618 15.1148 5542.79) (-62.6618 15.1148 5542.79) (-62.6618 15.1148 5542.79) (-62.6618 15.1148 5542.79) (-62.6618 15.1148 5542.79) (-62.6618 15.1148 5542.79) (-44.9117 137.217 5719.27) (-44.9117 137.217 5719.27) (-44.9117 137.217 5719.27) (-44.9117 137.217 5719.27) (-44.9117 137.217 5719.27)
3300          (-62.6618 15.1148 5542.79) (-62.6618 15.1148 5542.79) (-62.6618 15.1148 5542.79) (-62.6618 15.1148 5542.79) (-62.6618 15.1148 5542.79) (-62.6618 15.1148 5542.79) (-44.9117 137.217 5719.27) (-44.9117 137.217 5719.27) (-44.9117 137.217 5719.27) (-44.9117 137.217 5719.27) (-44.9117 137.217 5719.27)
3350          (-62.6618 15.1148 5542.79) (-62.6618 15.1148 5542.79) (-62.6618 15.1148 5542.79) (-62.6618 15.1148 5542.79) (-62.6618 15.1148 5542.79) (-62.6618 15.1148 5542.79) (-44.9117 137.217 5719.27) (-44.9117 137.217 5719.27) (-44.9117 137.217 5719.27) (-44.9117 137.217 5719.27) (-44.9117 137.217 5719.27)
3400          (-62.6618 15.1148 5542.79) (-62.6618 15.1148 5542.79) (-62.6618 15.1148 5542.79) (-62.6618 15.1148 5542.79) (-62.6618 15.1148 5542.79) (-62.6618 15.1148 5542.79) (-44.9117 137.217 5719.27) (-44.9117 137.217 5719.27) (-44.9117 137.217 5719.27) (-44.9117 137.217 5719.27) (-44.9117 137.217 5719.27)
3450          (-62.6618 15.1148 5542.79) (-62.6618 15.1148 5542.79) (-62.6618 15.1148 5542.79) (-62.6618 15.1148 5542.79) (-62.6618 15.1148 5542.79) (-62.6618 15.1148 5542.79) (-44.9117 137.217 5719.27) (-44.9117 137.217 5719.27) (-44.9117 137.217 5719.27) (-44.9117 137.217 5719.27) (-44.9117 137.217 5719.27)
3500          (-62.6618 15.1148 5542.79) (-62.6618 15.1148 5542.79) (-62.6618 15.1148 5542.79) (-62.6618 15.1148 5542.79) (-62.6618 15.1148 5542.79) (-62.6618 15.1148 5542.79) (-44.9117 137.217 5719.27) (-44.9117 137.217 5719.27) (-44.9117 137.217 5719.27) (-44.9117 137.217 5719.27) (-44.9117 137.217 5719.27)
3550          (-62.6618 15.1148 5542.79) (-62.6618 15.1148 5542.79) (-62.6618 15.1148 5542.79) (-62.6618 15.1148 5542.79) (-62.6618 15.1148 5542.79) (-62.6618 15.1148 5542.79) (-44.9117 137.217 5719.27) (-44.9117 137.217 5719.27) (-44.9117 137.217 5719.27) (-44.9117 137.217 5719.27) (-44.9117 137.217 5719.27)
3600          (-62.6618 15.1148 5542.79) (-62.6618 15.1148 5542.79) (-62.6618 15.1148 5542.79) (-62.6618 15.1148 5542.79) (-62.6618 15.1148 5542.79) (-62.6618 15.1148 5542.79) (-44.9117 137.217 5719.27) (-44.9117 137.217 5719.27) (-44.9117 137.217 5719.27) (-44.9117 137.217 5719.27) (-44.9117 137.217 5719.27)
3650          (-62.6618 15.1148 5542.79) (-62.6618 15.1148 5542.79) (-62.6618 15.1148 5542.79) (-62.6618 15.1148 5542.79) (-62.6618 15.1148 5542.79) (-62.6618 15.1148 5542.79) (-44.9117 137.217 5719.27) (-44.9117 137.217 5719.27) (-44.9117 137.217 5719.27) (-44.9117 137.217 5719.27) (-44.9117 137.217 5719.27)
3700          (-62.6618 15.1148 5542.79) (-62.6618 15.1148 5542.79) (-62.6618 15.1148 5542.79) (-62.6618 15.1148 5542.79) (-62.6618 15.1148 5542.79) (-62.6618 15.1148 5542.79) (-44.9117 137.217 5719.27) (-44.9117 137.217 5719.27) (-44.9117 137.217 5719.27) (-44.9117 137.217 5719.27) (-44.9117 137.217 5719.27)
3750          (-62.6618 15.1148 5542.79) (-62.6618 15.1148 5542.79) (-62.6618 15.1148 5542.79) (-62.6618 15.1148 5542.79) (-62.6618 15.1148 5542.79) (-62.6618 15.1148 5542.79) (-44.9117 137.217 5719.27) (-44.9117 137.217 5719.27) (-44.9117 137.217 5719.27) (-44.9117 137.217 5719.27) (-44.9117 137.217 5719.27)
3800          (-62.6618 15.1148 5542.79) (-62.6618 15.1148 5542.79) (-62.6618 15.1148 5542.79) (-62.6618 15.1148 5542.79) (-62.6618 15.1148 5542.79) (-62.6618 15.1148 5542.79) (-44.9117 137.217 5719.27) (-44.9117 137.217 5719.27) (-44.9117 137.217 5719.27) (-44.9117 137.217 5719.27) (-44.9117 137.217 5719.27)
3850          (-62.6618 15.1148 5542.79) (-62.6618 15.1148 5542.79) (-62.6618 15.1148 5542.79) (-62.6618 15.1148 5542.79) (-62.6618 15.1148 5542.79) (-62.6618 15.1148 5542.79) (-44.9117 137.217 5719.27) (-44.9117 137.217 5719.27) (-44.9117 137.217 5719.27) (-44.9117 137.217 5719.27) (-44.9117 137.217 5719.27)
3900          (-62.6618 15.1148 5542.79) (-62.6618 15.1148 5542.79) (-62.6618 15.1148 5542.79) (-62.6618 15.1148 5542.79) (-62.6618 15.1148 5542.79) (-62.6618 15.1148 5542.79) (-44.9117 137.217 5719.27) (-44.9117 137.217 5719.27) (-44.9117 137.217 5719.27) (-44.9117 137.217 5719.27) (-44.9117 137.217 5719.27)
3950          (-62.6618 15.1148 5542.79) (-62.6618 15.1148 5542.79) (-62.6618 15.1148 5542.79) (-62.6618 15.1148 5542.79) (-62.6618 15.1148 5542.79) (-62.6618 15.1148 5542.79) (-44.9117 137.217 5719.27) (-44.9117 137.217 5719.27) (-44.9117 137.217 5719.27) (-44.9117 137.217 5719.27) (-44.9117 137.217 5719.27)
4000          (-62.6618 15.1148 5542.79) (-62.6618 15.1148 5542.79) (-62.6618 15.1148 5542.79) (-62.6618 15.1148 5542.79) (-62.6618 15.1148 5542.79) (-62.6618 15.1148 5542.79) (-44.9117 137.217 5719.27) (-44.9117 137.217 5719.27) (-44.9117 137.217 5719.27) (-44.9117 137.217 5719.27) (-44.9117 137.217 5719.27)
4050          (-62.6618 15.1148 5542.79) (-62.6618 15.1148 5542.79) (-62.6618 15.1148 5542.79) (-62.6618 15.1148 5542.79) (-62.6618 15.1148 5542.79) (-62.6618 15.1148 5542.79) (-44.9117 137.217 5719.27) (-44.9117 137.217 5719.27) (-44.9117 137.217 5719.27) (-44.9117 137.217 5719.27) (-44.9117 137.217 5719.27)
4100          (-62.6618 15.1148 5542.79) (-62.6618 15.1148 5542.79) (-62.6618 15.1148 5542.79) (-62.6618 15.1148 5542.79) (-62.6618 15.1148 5542.79) (-62.6618 15.1148 5542.79) (-44.9117 137.217 5719.27) (-44.9117 137.217 5719.27) (-44.9117 137.217 5719.27) (-44.9117 137.217 5719.27) (-44.9117 137.217 5719.27)
4150          (-62.6618 15.1148 5542.79) (-62.6618 15.1148 5542.79) (-62.6618 15.1148 5542.79) (-62.6618 15.1148 5542.79) (-62.6618 15.1148 5542.79) (-62.6618 15.1148 5542.79) (-44.9117 137.217 5719.27) (-44.9117 137.217 5719.27) (-44.9117 137.217 5719.27) (-44.9117 137.217 5719.27) (-44.9117 137.217 5719.27)
4200          (-62.6618 15.1148 5542.79) (-62.6618 15.1148 5542.79) (-62.6618 15.1148 5542.79) (-62.6618 15.1148 5542.79) (-62.6618 15.1148 5542.79) (-62.6618 15.1148 5542.79) (-44.9117 137.217 5719.27) (-44.9117 137.217 5719.27) (-44.9117 137.217 5719.27) (-44.9117 137.217 5719.27) (-44.9117 137.217 5719.27)
4250          (-62.6618 15.1148 5542.79) (-62.6618 15.1148 5542.79) (-62.6618 15.1148 5542.79) (-62.6618 15.1148 5542.79) (-62.6618 15.1148 5542.79) (-62.6618 15.1148 5542.79) (-44.9117 137.217 5719.27) (-44.9117 137.217 5719.27) (-44.9117 137.217 5719.27) (-44.9117 137.217 5719.27) (-44.9117 137.217 5719.27)
4300          (-62.6618 15.1148 5542.79) (-62.6618 15.1148 5542.79) (-62.6618 15.1148 5542.79) (-62.6618 15.1148 5542.79) (-62.6618 15.1148 5542.79) (-62.6618 15.1148 5542.79) (-44.9117 137.217 5719.27) (-44.9117 137.217 5719.27) (-44.9117 137.217 5719.27) (-44.9117 137.217 5719.27) (-44.9117 137.217 5719.27)
4350          (-62.6618 15.1148 5542.79) (-62.6618 15.1148 5542.79) (-62.6618 15.1148 5542.79) (-62.6618 15.1148 5542.79) (-62.6618 15.1148 5542.79) (-62.6618 15.1148 5542.79) (-44.9117 137.217 5719.27) (-44.9117 137.217 5719.27) (-44.9117 137.217 5719.27) (-44.9117 137.217 5719.27) (-44.9117 137.217 5719.27)
4400          (-62.6618 15.1148 5542.79) (-62.6618 15.1148 5542.79) (-62.6618 15.1148 5542.79) (-62.6618 15.1148 5542.79) (-62.6618 15.1148 5542.79) (-62.6618 15.1148 5542.79) (-44.9117 137.217 5719.27) (-44.9117 137.217 5719.27) (-44.9117 137.217 5719.27) (-44.9117 137.217 5719.27) (-44.9117 137.217 5719.27)
4450          (-62.6618 15.1148 5542.79) (-62.6618 15.1148 5542.79) (-62.6618 15.1148 5542.79) (-62.6618 15.1148 5542.79) (-62.6618 15.1148 5542.79) (-62.6618 15.1148 5542.79) (-44.9117 137.217 5719.27) (-44.9117 137.217 5719.27) (-44.9117 137.217 5719.27) (-44.9117 137.217 5719.27) (-44.9117 137.217 5719.27)
4500          (-62.6618 15.1148 5542.79) (-62.6618 15.1148 5542.79) (-62.6618 15.1148 5542.79) (-62.6618 15.1148 5542.79) (-62.6618 15.1148 5542.79) (-62.6618 15.1148 5542.79) (-44.9117 137.217 5719.27) (-44.9117 137.217 5719.27) (-44.9117 137.217 5719.27) (-44.9117 137.217 5719.27) (-44.9117 137.217 5719.27)
4550          (-62.6618 15.1148 5542.79) (-62.6618 15.1148 5542.79) (-62.6618 15.1148 5542.79) (-62.6618 15.1148 5542.79) (-62.6618 15.1148 5542.79) (-62.6618 15.1148 5542.79) (-44.9117 137.217 5719.27) (-44.9117 137.217 5719.27) (-44.9117 137.217 5719.27) (-44.9117 137.217 5719.27) (-44.9117 137.217 5719.27)
4600          (-62.6618 15.1148 5542.79) (-62.6618 15.1148 5542.79) (-62.6618 15.1148 5542.79) (-62.6618 15.1148 5542.79) (-62.6618 15.1148 5542.79) (-62.6618 15.1148 5542.79) (-44.9117 137.217 5719.27) (-44.9117 137.217 5719.27) (-44.9117 137.217 5719.27) (-44.9117 137.217 5719.27) (-44.9117 137.217 5719.27)
4650          (-62.6618 15.1148 5542.79) (-62.6618 15.1148 5542.79) (-62.6618 15.1148 5542.79) (-62.6618 15.1148 5542.79) (-62.6618 15.1148 5542.79) (-62.6618 15.1148 5542.79) (-44.9117 137.217 5719.27) (-44.9117 137.217 5719.27) (-44.9117 137.217 5719.27) (-44.9117 137.217 5719.27) (-44.9117 137.217 5719.27)
4700          (-62.6618 15.1148 5542.79) (-62.6618 15.1148 5542.79) (-62.6618 15.1148 5542.79) (-62.6618 15.1148 5542.79) (-62.6618 15.1148 5542.79) (-62.6618 15.1148 5542.79) (-44.9117 137.217 5719.27) (-44.9117 137.217 5719.27) (-44.9117 137.217 5719.27) (-44.9117 137.217 5719.27) (-44.9117 137.217 5719.27)
4750          (-62.6618 15.1148 5542.79) (-62.6618 15.1148 5542.79) (-62.6618 15.1148 5542.79) (-62.6618 15.1148 5542.79) (-62.6618 15.1148 5542.79) (-62.6618 15.1148 5542.79) (-44.9117 137.217 5719.27) (-44.9117 137.217 5719.27) (-44.9117 137.217 5719.27) (-44.9117 137.217 5719.27) (-44.9117 137.217 5719.27)