# Probe 0 (0.0015 0.0015 0)
# Probe 1 (0.0015 0.0015 0.002)
# Probe 2 (0.0015 0.0015 0.004)
# Probe 3 (0.0015 0.0015 0.006)
# Probe 4 (0.0015 0.0015 0.008)
# Probe 5 (0.0015 0.0015 0.01)
# Probe 6 (0.0015 0.0015 0.012)
# Probe 7 (0.0015 0.0015 0.014)
# Probe 8 (0.0015 0.0015 0.016)
# Probe 9 (0.0015 0.0015 0.018)
# Probe 10 (0.0015 0.0015 0.02)
# Time        0             1             2             3             4             5             6             7             8             9             10           
50            (5.79559e-17 -9.77021e-17 4.39629e-13) (5.79559e-17 -9.77021e-17 4.39629e-13) (5.79559e-17 -9.77021e-17 4.39629e-13) (5.79559e-17 -9.77021e-17 4.39629e-13) (5.79559e-17 -9.77021e-17 4.39629e-13) (5.79559e-17 -9.77021e-17 4.39629e-13) (5.70899e-17 -9.32592e-17 1.06867e-12) (5.70899e-17 -9.32592e-17 1.06867e-12) (5.70899e-17 -9.32592e-17 1.06867e-12) (5.70899e-17 -9.32592e-17 1.06867e-12) (5.70899e-17 -9.32592e-17 1.06867e-12)
100           (2.42232e-18 -4.86076e-18 3.03238e-14) (2.42232e-18 -4.86076e-18 3.03238e-14) (2.42232e-18 -4.86076e-18 3.03238e-14) (2.42232e-18 -4.86076e-18 3.03238e-14) (2.42232e-18 -4.86076e-18 3.03238e-14) (2.42232e-18 -4.86076e-18 3.03238e-14) (2.42249e-18 -8.83959e-18 7.36848e-14) (2.42249e-18 -8.83959e-18 7.36848e-14) (2.42249e-18 -8.83959e-18 7.36848e-14) (2.42249e-18 -8.83959e-18 7.36848e-14) (2.42249e-18 -8.83959e-18 7.36848e-14)
150           (1.9984e-20 -1.99858e-19 2.09016e-15) (1.9984e-20 -1.99858e-19 2.09016e-15) (1.9984e-20 -1.99858e-19 2.09016e-15) (1.9984e-20 -1.99858e-19 2.09016e-15) (1.9984e-20 -1.99858e-19 2.09016e-15) (1.9984e-20 -1.99858e-19 2.09016e-15) (2.02039e-21 -3.75133e-27 5.08089e-15) (2.02039e-21 -3.75133e-27 5.08089e-15) (2.02039e-21 -3.75133e-27 5.08089e-15) (2.02039e-21 -3.75133e-27 5.08089e-15) (2.02039e-21 -3.75133e-27 5.08089e-15)
200           (-1.05366e-15 1.74786e-15 -7.67815e-12) (-1.05366e-15 1.74786e-15 -7.67815e-12) (-1.05366e-15 1.74786e-15 -7.67815e-12) (-1.05366e-15 1.74786e-15 -7.67815e-12) (-1.05366e-15 1.74786e-15 -7.67815e-12) (-1.05366e-15 1.74786e-15 -7.67815e-12) (-9.40484e-16 1.62005e-15 -2.25909e-11) (-9.40484e-16 1.62005e-15 -2.25909e-11) (-9.40484e-16 1.62005e-15 -2.25909e-11) (-9.40484e-16 1.62005e-15 -2.25909e-11) (-9.40484e-16 1.62005e-15 -2.25909e-11)
250           (-8.24791e-17 1.39989e-16 -6.26361e-13) (-8.24791e-17 1.39989e-16 -6.26361e-13) (-8.24791e-17 1.39989e-16 -6.26361e-13) (-8.24791e-17 1.39989e-16 -6.26361e-13) (-8.24791e-17 1.39989e-16 -6.26361e-13) (-8.24791e-17 1.39989e-16 -6.26361e-13) (-7.75952e-17 1.33317e-16 -1.52202e-12) (-7.75952e-17 1.33317e-16 -1.52202e-12) (-7.75952e-17 1.33317e-16 -1.52202e-12) (-7.75952e-17 1.33317e-16 -1.52202e-12) (-7.75952e-17 1.33317e-16 -1.52202e-12)
300           (-5.75197e-18 1.09812e-17 -4.31915e-14) (-5.75197e-18 1.09812e-17 -4.31915e-14) (-5.75197e-18 1.09812e-17 -4.31915e-14) (-5.75197e-18 1.09812e-17 -4.31915e-14) (-5.75197e-18 1.09812e-17 -4.31915e-14) (-5.75197e-18 1.09812e-17 -4.31915e-14) (-7.75026e-18 6.98331e-18 -1.04954e-13) (-7.75026e-18 6.98331e-18 -1.04954e-13) (-7.75026e-18 6.98331e-18 -1.04954e-13) (-7.75026e-18 6.98331e-18 -1.04954e-13) (-7.75026e-18 6.98331e-18 -1.04954e-13)
350           (7.9927e-21 1.0093e-18 -2.97684e-15) (7.9927e-21 1.0093e-18 -2.97684e-15) (7.9927e-21 1.0093e-18 -2.97684e-15) (7.9927e-21 1.0093e-18 -2.97684e-15) (7.9927e-21 1.0093e-18 -2.97684e-15) (7.9927e-21 1.0093e-18 -2.97684e-15) (-2.22834e-18 -9.97022e-20 -7.23573e-15) (-2.22834e-18 -9.97022e-20 -7.23573e-15) (-2.22834e-18 -9.97022e-20 -7.23573e-15) (-2.22834e-18 -9.97022e-20 -7.23573e-15) (-2.22834e-18 -9.97022e-20 -7.23573e-15)
400           (-1.31417e-10 -6.55457e-10 -6.779e-10) (-1.31417e-10 -6.55457e-10 -6.779e-10) (-1.31417e-10 -6.55457e-10 -6.779e-10) (-1.31417e-10 -6.55457e-10 -6.779e-10) (-1.31417e-10 -6.55457e-10 -6.779e-10) (-1.31417e-10 -6.55457e-10 -6.779e-10) (6.36119e-21 1.89858e-20 1.01571e-10) (6.36119e-21 1.89858e-20 1.01571e-10) (6.36119e-21 1.89858e-20 1.01571e-10) (6.36119e-21 1.89858e-20 1.01571e-10) (6.36119e-21 1.89858e-20 1.01571e-10)
450           (6.90601e-17 -1.15464e-16 5.20152e-13) (6.90601e-17 -1.15464e-16 5.20152e-13) (6.90601e-17 -1.15464e-16 5.20152e-13) (6.90601e-17 -1.15464e-16 5.20152e-13) (6.90601e-17 -1.15464e-16 5.20152e-13) (6.90601e-17 -1.15464e-16 5.20152e-13) (6.43934e-17 -1.11001e-16 1.26385e-12) (6.43934e-17 -1.11001e-16 1.26385e-12) (6.43934e-17 -1.11001e-16 1.26385e-12) (6.43934e-17 -1.11001e-16 1.26385e-12) (6.43934e-17 -1.11001e-16 1.26385e-12)
500           (4.48108e-18 -8.88178e-18 3.58635e-14) (4.48108e-18 -8.88178e-18 3.58635e-14) (4.48108e-18 -8.88178e-18 3.58635e-14) (4.48108e-18 -8.88178e-18 3.58635e-14) (4.48108e-18 -8.88178e-18 3.58635e-14) (4.48108e-18 -8.88178e-18 3.58635e-14) (6.64113e-18 -6.66136e-18 8.71459e-14) (6.64113e-18 -6.66136e-18 8.71459e-14) (6.64113e-18 -6.66136e-18 8.71459e-14) (6.64113e-18 -6.66136e-18 8.71459e-14) (6.64113e-18 -6.66136e-18 8.71459e-14)
550           (1.98042e-19 -4.19667e-18 2.46921e-15) (1.98042e-19 -4.19667e-18 2.46921e-15) (1.98042e-19 -4.19667e-18 2.46921e-15) (1.98042e-19 -4.19667e-18 2.46921e-15) (1.98042e-19 -4.19667e-18 2.46921e-15) (1.98042e-19 -4.19667e-18 2.46921e-15) (-1.99618e-18 1.79636e-18 6.00601e-15) (-1.99618e-18 1.79636e-18 6.00601e-15) (-1.99618e-18 1.79636e-18 6.00601e-15) (-1.99618e-18 1.79636e-18 6.00601e-15) (-1.99618e-18 1.79636e-18 6.00601e-15)
600           (-3.43951e-15 5.73865e-15 -2.39247e-11) (-3.43951e-15 5.73865e-15 -2.39247e-11) (-3.43951e-15 5.73865e-15 -2.39247e-11) (-3.43951e-15 5.73865e-15 -2.39247e-11) (-3.43951e-15 5.73865e-15 -2.39247e-11) (-3.43951e-15 5.73865e-15 -2.39247e-11) (-2.84925e-15 5.06323e-15 -9.82676e-11) (-2.84925e-15 5.06323e-15 -9.82676e-11) (-2.84925e-15 5.06323e-15 -9.82676e-11) (-2.84925e-15 5.06323e-15 -9.82676e-11) (-2.84925e-15 5.06323e-15 -9.82676e-11)
650           (-3.55411e-16 5.85217e-16 -2.63742e-12) (-3.55411e-16 5.85217e-16 -2.63742e-12) (-3.55411e-16 5.85217e-16 -2.63742e-12) (-3.55411e-16 5.85217e-16 -2.63742e-12) (-3.55411e-16 5.85217e-16 -2.63742e-12) (-3.55411e-16 5.85217e-16 -2.63742e-12) (-3.23403e-16 5.56441e-16 -6.40896e-12) (-3.23403e-16 5.56441e-16 -6.40896e-12) (-3.23403e-16 5.56441e-16 -6.40896e-12) (-3.23403e-16 5.56441e-16 -6.40896e-12) (-3.23403e-16 5.56441e-16 -6.40896e-12)
700           (-2.33259e-17 4.08697e-17 -1.8187e-13) (-2.33259e-17 4.08697e-17 -1.8187e-13) (-2.33259e-17 4.08697e-17 -1.8187e-13) (-2.33259e-17 4.08697e-17 -1.8187e-13) (-2.33259e-17 4.08697e-17 -1.8187e-13) (-2.33259e-17 4.08697e-17 -1.8187e-13) (-2.13162e-17 3.7758e-17 -4.41925e-13) (-2.13162e-17 3.7758e-17 -4.41925e-13) (-2.13162e-17 3.7758e-17 -4.41925e-13) (-2.13162e-17 3.7758e-17 -4.41925e-13) (-2.13162e-17 3.7758e-17 -4.41925e-13)
750           (-1.13332e-18 1.33317e-18 -1.25426e-14) (-1.13332e-18 1.33317e-18 -1.25426e-14) (-1.13332e-18 1.33317e-18 -1.25426e-14) (-1.13332e-18 1.33317e-18 -1.25426e-14) (-1.13332e-18 1.33317e-18 -1.25426e-14) (-1.13332e-18 1.33317e-18 -1.25426e-14) (-2.20045e-18 3.42827e-18 -3.04734e-14) (-2.20045e-18 3.42827e-18 -3.04734e-14) (-2.20045e-18 3.42827e-18 -3.04734e-14) (-2.20045e-18 3.42827e-18 -3.04734e-14) (-2.20045e-18 3.42827e-18 -3.04734e-14)
800           (-1.10912e-18 1.01928e-20 -8.65464e-16) (-1.10912e-18 1.01928e-20 -8.65464e-16) (-1.10912e-18 1.01928e-20 -8.65464e-16) (-1.10912e-18 1.01928e-20 -8.65464e-16) (-1.10912e-18 1.01928e-20 -8.65464e-16) (-1.10912e-18 1.01928e-20 -8.65464e-16) (7.69383e-19 -2.20824e-18 -2.10236e-15) (7.69383e-19 -2.20824e-18 -2.10236e-15) (7.69383e-19 -2.20824e-18 -2.10236e-15) (7.69383e-19 -2.20824e-18 -2.10236e-15) (7.69383e-19 -2.20824e-18 -2.10236e-15)
850           (-1.97296e-15 3.2542e-15 -1.46146e-11) (-1.97296e-15 3.2542e-15 -1.46146e-11) (-1.97296e-15 3.2542e-15 -1.46146e-11) (-1.97296e-15 3.2542e-15 -1.46146e-11) (-1.97296e-15 3.2542e-15 -1.46146e-11) (-1.97296e-15 3.2542e-15 -1.46146e-11) (-1.79841e-15 3.08522e-15 -3.57653e-11) (-1.79841e-15 3.08522e-15 -3.57653e-11) (-1.79841e-15 3.08522e-15 -3.57653e-11) (-1.79841e-15 3.08522e-15 -3.57653e-11) (-1.79841e-15 3.08522e-15 -3.57653e-11)
900           (-1.35372e-16 2.25398e-16 -1.01415e-12) (-1.35372e-16 2.25398e-16 -1.01415e-12) (-1.35372e-16 2.25398e-16 -1.01415e-12) (-1.35372e-16 2.25398e-16 -1.01415e-12) (-1.35372e-16 2.25398e-16 -1.01415e-12) (-1.35372e-16 2.25398e-16 -1.01415e-12) (-1.24358e-16 2.15385e-16 -2.46426e-12) (-1.24358e-16 2.15385e-16 -2.46426e-12) (-1.24358e-16 2.15385e-16 -2.46426e-12) (-1.24358e-16 2.15385e-16 -2.46426e-12) (-1.24358e-16 2.15385e-16 -2.46426e-12)
950           (-8.98282e-18 1.4433e-17 -6.99315e-14) (-8.98282e-18 1.4433e-17 -6.99315e-14) (-8.98282e-18 1.4433e-17 -6.99315e-14) (-8.98282e-18 1.4433e-17 -6.99315e-14) (-8.98282e-18 1.4433e-17 -6.99315e-14) (-8.98282e-18 1.4433e-17 -6.99315e-14) (-8.97051e-18 1.44232e-17 -1.69922e-13) (-8.97051e-18 1.44232e-17 -1.69922e-13) (-8.97051e-18 1.44232e-17 -1.69922e-13) (-8.97051e-18 1.44232e-17 -1.69922e-13) (-8.97051e-18 1.44232e-17 -1.69922e-13)
1000          (-9.99314e-22 1.11922e-19 -4.82076e-15) (-9.99314e-22 1.11922e-19 -4.82076e-15) (-9.99314e-22 1.11922e-19 -4.82076e-15) (-9.99314e-22 1.11922e-19 -4.82076e-15) (-9.99314e-22 1.11922e-19 -4.82076e-15) (-9.99314e-22 1.11922e-19 -4.82076e-15) (-1.99961e-19 2.22944e-18 -1.17162e-14) (-1.99961e-19 2.22944e-18 -1.17162e-14) (-1.99961e-19 2.22944e-18 -1.17162e-14) (-1.99961e-19 2.22944e-18 -1.17162e-14) (-1.99961e-19 2.22944e-18 -1.17162e-14)
1050          (-1.99848e-18 1.00001e-19 -3.31663e-16) (-1.99848e-18 1.00001e-19 -3.31663e-16) (-1.99848e-18 1.00001e-19 -3.31663e-16) (-1.99848e-18 1.00001e-19 -3.31663e-16) (-1.99848e-18 1.00001e-19 -3.31663e-16) (-1.99848e-18 1.00001e-19 -3.31663e-16) (-9.80226e-20 -1.08014e-18 -8.08889e-16) (-9.80226e-20 -1.08014e-18 -8.08889e-16) (-9.80226e-20 -1.08014e-18 -8.08889e-16) (-9.80226e-20 -1.08014e-18 -8.08889e-16) (-9.80226e-20 -1.08014e-18 -8.08889e-16)
1100          (-1.36543e-15 2.24875e-15 -1.01219e-11) (-1.36543e-15 2.24875e-15 -1.01219e-11) (-1.36543e-15 2.24875e-15 -1.01219e-11) (-1.36543e-15 2.24875e-15 -1.01219e-11) (-1.36543e-15 2.24875e-15 -1.01219e-11) (-1.36543e-15 2.24875e-15 -1.01219e-11) (-1.24571e-15 2.13625e-15 -2.46113e-11) (-1.24571e-15 2.13625e-15 -2.46113e-11) (-1.24571e-15 2.13625e-15 -2.46113e-11) (-1.24571e-15 2.13625e-15 -2.46113e-11) (-1.24571e-15 2.13625e-15 -2.46113e-11)
1150          (-9.40616e-17 1.55432e-16 -6.98361e-13) (-9.40616e-17 1.55432e-16 -6.98361e-13) (-9.40616e-17 1.55432e-16 -6.98361e-13) (-9.40616e-17 1.55432e-16 -6.98361e-13) (-9.40616e-17 1.55432e-16 -6.98361e-13) (-9.40616e-17 1.55432e-16 -6.98361e-13) (-8.64868e-17 1.46573e-16 -1.69694e-12) (-8.64868e-17 1.46573e-16 -1.69694e-12) (-8.64868e-17 1.46573e-16 -1.69694e-12) (-8.64868e-17 1.46573e-16 -1.69694e-12) (-8.64868e-17 1.46573e-16 -1.69694e-12)
1200          (-5.44143e-18 1.09933e-17 -4.81526e-14) (-5.44143e-18 1.09933e-17 -4.81526e-14) (-5.44143e-18 1.09933e-17 -4.81526e-14) (-5.44143e-18 1.09933e-17 -4.81526e-14) (-5.44143e-18 1.09933e-17 -4.81526e-14) (-5.44143e-18 1.09933e-17 -4.81526e-14) (-4.42302e-18 9.99122e-18 -1.17009e-13) (-4.42302e-18 9.99122e-18 -1.17009e-13) (-4.42302e-18 9.99122e-18 -1.17009e-13) (-4.42302e-18 9.99122e-18 -1.17009e-13) (-4.42302e-18 9.99122e-18 -1.17009e-13)
1250          (-1.99841e-22 2.01049e-18 -3.32057e-15) (-1.99841e-22 2.01049e-18 -3.32057e-15) (-1.99841e-22 2.01049e-18 -3.32057e-15) (-1.99841e-22 2.01049e-18 -3.32057e-15) (-1.99841e-22 2.01049e-18 -3.32057e-15) (-1.99841e-22 2.01049e-18 -3.32057e-15) (-1.10042e-18 -1.01796e-18 -8.06813e-15) (-1.10042e-18 -1.01796e-18 -8.06813e-15) (-1.10042e-18 -1.01796e-18 -8.06813e-15) (-1.10042e-18 -1.01796e-18 -8.06813e-15) (-1.10042e-18 -1.01796e-18 -8.06813e-15)
1300          (2.00761e-22 1.00919e-19 -2.28188e-16) (2.00761e-22 1.00919e-19 -2.28188e-16) (2.00761e-22 1.00919e-19 -2.28188e-16) (2.00761e-22 1.00919e-19 -2.28188e-16) (2.00761e-22 1.00919e-19 -2.28188e-16) (2.00761e-22 1.00919e-19 -2.28188e-16) (-9.98892e-20 1.8895e-19 -5.56667e-16) (-9.98892e-20 1.8895e-19 -5.56667e-16) (-9.98892e-20 1.8895e-19 -5.56667e-16) (-9.98892e-20 1.8895e-19 -5.56667e-16) (-9.98892e-20 1.8895e-19 -5.56667e-16)
1350          (-5.35024e-16 8.7921e-16 -3.95332e-12) (-5.35024e-16 8.7921e-16 -3.95332e-12) (-5.35024e-16 8.7921e-16 -3.95332e-12) (-5.35024e-16 8.7921e-16 -3.95332e-12) (-5.35024e-16 8.7921e-16 -3.95332e-12) (-5.35024e-16 8.7921e-16 -3.95332e-12) (-4.86297e-16 8.35921e-16 -9.60731e-12) (-4.86297e-16 8.35921e-16 -9.60731e-12) (-4.86297e-16 8.35921e-16 -9.60731e-12) (-4.86297e-16 8.35921e-16 -9.60731e-12) (-4.86297e-16 8.35921e-16 -9.60731e-12)
1400          (-3.66498e-17 5.88534e-17 -2.7263e-13) (-3.66498e-17 5.88534e-17 -2.7263e-13) (-3.66498e-17 5.88534e-17 -2.7263e-13) (-3.66498e-17 5.88534e-17 -2.7263e-13) (-3.66498e-17 5.88534e-17 -2.7263e-13) (-3.66498e-17 5.88534e-17 -2.7263e-13) (-3.33079e-17 5.86122e-17 -6.62454e-13) (-3.33079e-17 5.86122e-17 -6.62454e-13) (-3.33079e-17 5.86122e-17 -6.62454e-13) (-3.33079e-17 5.86122e-17 -6.62454e-13) (-3.33079e-17 5.86122e-17 -6.62454e-13)
1450          (-3.09884e-18 5.4291e-18 -1.88e-14) (-3.09884e-18 5.4291e-18 -1.88e-14) (-3.09884e-18 5.4291e-18 -1.88e-14) (-3.09884e-18 5.4291e-18 -1.88e-14) (-3.09884e-18 5.4291e-18 -1.88e-14) (-3.09884e-18 5.4291e-18 -1.88e-14) (-2.4314e-18 3.43969e-18 -4.56819e-14) (-2.4314e-18 3.43969e-18 -4.56819e-14) (-2.4314e-18 3.43969e-18 -4.56819e-14) (-2.4314e-18 3.43969e-18 -4.56819e-14) (-2.4314e-18 3.43969e-18 -4.56819e-14)
1500          (1.09912e-19 1.0112e-21 -1.29474e-15) (1.09912e-19 1.0112e-21 -1.29474e-15) (1.09912e-19 1.0112e-21 -1.29474e-15) (1.09912e-19 1.0112e-21 -1.29474e-15) (1.09912e-19 1.0112e-21 -1.29474e-15) (1.09912e-19 1.0112e-21 -1.29474e-15) (-1.30097e-19 1.88749e-19 -3.14865e-15) (-1.30097e-19 1.88749e-19 -3.14865e-15) (-1.30097e-19 1.88749e-19 -3.14865e-15) (-1.30097e-19 1.88749e-19 -3.14865e-15) (-1.30097e-19 1.88749e-19 -3.14865e-15)
1550          (-2.68912e-15 4.4413e-15 -1.98899e-11) (-2.68912e-15 4.4413e-15 -1.98899e-11) (-2.68912e-15 4.4413e-15 -1.98899e-11) (-2.68912e-15 4.4413e-15 -1.98899e-11) (-2.68912e-15 4.4413e-15 -1.98899e-11) (-2.68912e-15 4.4413e-15 -1.98899e-11) (-2.44491e-15 4.19911e-15 -5.00851e-11) (-2.44491e-15 4.19911e-15 -5.00851e-11) (-2.44491e-15 4.19911e-15 -5.00851e-11) (-2.44491e-15 4.19911e-15 -5.00851e-11) (-2.44491e-15 4.19911e-15 -5.00851e-11)
1600          (-1.91074e-16 3.15198e-16 -1.41576e-12) (-1.91074e-16 3.15198e-16 -1.41576e-12) (-1.91074e-16 3.15198e-16 -1.41576e-12) (-1.91074e-16 3.15198e-16 -1.41576e-12) (-1.91074e-16 3.15198e-16 -1.41576e-12) (-1.91074e-16 3.15198e-16 -1.41576e-12) (-1.75319e-16 2.99564e-16 -3.44013e-12) (-1.75319e-16 2.99564e-16 -3.44013e-12) (-1.75319e-16 2.99564e-16 -3.44013e-12) (-1.75319e-16 2.99564e-16 -3.44013e-12) (-1.75319e-16 2.99564e-16 -3.44013e-12)
1650          (-1.11265e-17 2.12843e-17 -9.76248e-14) (-1.11265e-17 2.12843e-17 -9.76248e-14) (-1.11265e-17 2.12843e-17 -9.76248e-14) (-1.11265e-17 2.12843e-17 -9.76248e-14) (-1.11265e-17 2.12843e-17 -9.76248e-14) (-1.11265e-17 2.12843e-17 -9.76248e-14) (-1.23024e-17 1.92159e-17 -2.37211e-13) (-1.23024e-17 1.92159e-17 -2.37211e-13) (-1.23024e-17 1.92159e-17 -2.37211e-13) (-1.23024e-17 1.92159e-17 -2.37211e-13) (-1.23024e-17 1.92159e-17 -2.37211e-13)
1700          (9.98081e-19 1.23023e-18 -6.73277e-15) (9.98081e-19 1.23023e-18 -6.73277e-15) (9.98081e-19 1.23023e-18 -6.73277e-15) (9.98081e-19 1.23023e-18 -6.73277e-15) (9.98081e-19 1.23023e-18 -6.73277e-15) (9.98081e-19 1.23023e-18 -6.73277e-15) (-2.19704e-18 1.22922e-18 -1.63601e-14) (-2.19704e-18 1.22922e-18 -1.63601e-14) (-2.19704e-18 1.22922e-18 -1.63601e-14) (-2.19704e-18 1.22922e-18 -1.63601e-14) (-2.19704e-18 1.22922e-18 -1.63601e-14)
1750          (-8.994e-20 2.88867e-18 -4.65246e-16) (-8.994e-20 2.88867e-18 -4.65246e-16) (-8.994e-20 2.88867e-18 -4.65246e-16) (-8.994e-20 2.88867e-18 -4.65246e-16) (-8.994e-20 2.88867e-18 -4.65246e-16) (-8.994e-20 2.88867e-18 -4.65246e-16) (-1.20005e-19 -1.00121e-19 -1.12703e-15) (-1.20005e-19 -1.00121e-19 -1.12703e-15) (-1.20005e-19 -1.00121e-19 -1.12703e-15) (-1.20005e-19 -1.00121e-19 -1.12703e-15) (-1.20005e-19 -1.00121e-19 -1.12703e-15)
1800          (-4.37359e-16 7.23785e-16 -3.24772e-12) (-4.37359e-16 7.23785e-16 -3.24772e-12) (-4.37359e-16 7.23785e-16 -3.24772e-12) (-4.37359e-16 7.23785e-16 -3.24772e-12) (-4.37359e-16 7.23785e-16 -3.24772e-12) (-4.37359e-16 7.23785e-16 -3.24772e-12) (-4.00698e-16 6.84239e-16 -7.90574e-12) (-4.00698e-16 6.84239e-16 -7.90574e-12) (-4.00698e-16 6.84239e-16 -7.90574e-12) (-4.00698e-16 6.84239e-16 -7.90574e-12) (-4.00698e-16 6.84239e-16 -7.90574e-12)
1850          (-3.09974e-17 4.8972e-17 -2.243e-13) (-3.09974e-17 4.8972e-17 -2.243e-13) (-3.09974e-17 4.8972e-17 -2.243e-13) (-3.09974e-17 4.8972e-17 -2.243e-13) (-3.09974e-17 4.8972e-17 -2.243e-13) (-3.09974e-17 4.8972e-17 -2.243e-13) (-2.98651e-17 4.66415e-17 -5.45026e-13) (-2.98651e-17 4.66415e-17 -5.45026e-13) (-2.98651e-17 4.66415e-17 -5.45026e-13) (-2.98651e-17 4.66415e-17 -5.45026e-13) (-2.98651e-17 4.66415e-17 -5.45026e-13)
1900          (-1.33207e-20 3.22187e-18 -1.54634e-14) (-1.33207e-20 3.22187e-18 -1.54634e-14) (-1.33207e-20 3.22187e-18 -1.54634e-14) (-1.33207e-20 3.22187e-18 -1.54634e-14) (-1.33207e-20 3.22187e-18 -1.54634e-14) (-1.33207e-20 3.22187e-18 -1.54634e-14) (-3.22067e-18 3.41961e-18 -3.75764e-14) (-3.22067e-18 3.41961e-18 -3.75764e-14) (-3.22067e-18 3.41961e-18 -3.75764e-14) (-3.22067e-18 3.41961e-18 -3.75764e-14) (-3.22067e-18 3.41961e-18 -3.75764e-14)
1950          (9.98201e-22 1.01039e-19 -1.06797e-15) (9.98201e-22 1.01039e-19 -1.06797e-15) (9.98201e-22 1.01039e-19 -1.06797e-15) (9.98201e-22 1.01039e-19 -1.06797e-15) (9.98201e-22 1.01039e-19 -1.06797e-15) (9.98201e-22 1.01039e-19 -1.06797e-15) (9.78517e-19 9.1047e-20 -2.59593e-15) (9.78517e-19 9.1047e-20 -2.59593e-15) (9.78517e-19 9.1047e-20 -2.59593e-15) (9.78517e-19 9.1047e-20 -2.59593e-15) (9.78517e-19 9.1047e-20 -2.59593e-15)
2000          (6.89576e-15 -1.13896e-14 5.10534e-11) (6.89576e-15 -1.13896e-14 5.10534e-11) (6.89576e-15 -1.13896e-14 5.10534e-11) (6.89576e-15 -1.13896e-14 5.10534e-11) (6.89576e-15 -1.13896e-14 5.10534e-11) (6.89576e-15 -1.13896e-14 5.10534e-11) (6.27764e-15 -1.07744e-14 1.27794e-10) (6.27764e-15 -1.07744e-14 1.27794e-10) (6.27764e-15 -1.07744e-14 1.27794e-10) (6.27764e-15 -1.07744e-14 1.27794e-10) (6.27764e-15 -1.07744e-14 1.27794e-10)
2050          (4.86514e-16 -8.01835e-16 3.61488e-12) (4.86514e-16 -8.01835e-16 3.61488e-12) (4.86514e-16 -8.01835e-16 3.61488e-12) (4.86514e-16 -8.01835e-16 3.61488e-12) (4.86514e-16 -8.01835e-16 3.61488e-12) (4.86514e-16 -8.01835e-16 3.61488e-12) (4.46538e-16 -7.61865e-16 8.78377e-12) (4.46538e-16 -7.61865e-16 8.78377e-12) (4.46538e-16 -7.61865e-16 8.78377e-12) (4.46538e-16 -7.61865e-16 8.78377e-12) (4.46538e-16 -7.61865e-16 8.78377e-12)
2100          (3.53275e-17 -5.55114e-17 2.49263e-13) (3.53275e-17 -5.55114e-17 2.49263e-13) (3.53275e-17 -5.55114e-17 2.49263e-13) (3.53275e-17 -5.55114e-17 2.49263e-13) (3.53275e-17 -5.55114e-17 2.49263e-13) (3.53275e-17 -5.55114e-17 2.49263e-13) (3.08868e-17 -5.10947e-17 6.05675e-13) (3.08868e-17 -5.10947e-17 6.05675e-13) (3.08868e-17 -5.10947e-17 6.05675e-13) (3.08868e-17 -5.10947e-17 6.05675e-13) (3.08868e-17 -5.10947e-17 6.05675e-13)
2150          (4.01881e-18 -4.43869e-18 1.71872e-14) (4.01881e-18 -4.43869e-18 1.71872e-14) (4.01881e-18 -4.43869e-18 1.71872e-14) (4.01881e-18 -4.43869e-18 1.71872e-14) (4.01881e-18 -4.43869e-18 1.71872e-14) (4.01881e-18 -4.43869e-18 1.71872e-14) (4.44089e-18 -6.41733e-18 4.17596e-14) (4.44089e-18 -6.41733e-18 4.17596e-14) (4.44089e-18 -6.41733e-18 4.17596e-14) (4.44089e-18 -6.41733e-18 4.17596e-14) (4.44089e-18 -6.41733e-18 4.17596e-14)
2200          (1.97844e-18 -1.99842e-23 1.18766e-15) (1.97844e-18 -1.99842e-23 1.18766e-15) (1.97844e-18 -1.99842e-23 1.18766e-15) (1.97844e-18 -1.99842e-23 1.18766e-15) (1.97844e-18 -1.99842e-23 1.18766e-15) (1.97844e-18 -1.99842e-23 1.18766e-15) (1.97822e-18 -1.9984e-19 2.88419e-15) (1.97822e-18 -1.9984e-19 2.88419e-15) (1.97822e-18 -1.9984e-19 2.88419e-15) (1.97822e-18 -1.9984e-19 2.88419e-15) (1.97822e-18 -1.9984e-19 2.88419e-15)
2250          (-4.10953e-15 6.78861e-15 -3.03664e-11) (-4.10953e-15 6.78861e-15 -3.03664e-11) (-4.10953e-15 6.78861e-15 -3.03664e-11) (-4.10953e-15 6.78861e-15 -3.03664e-11) (-4.10953e-15 6.78861e-15 -3.03664e-11) (-4.10953e-15 6.78861e-15 -3.03664e-11) (-3.73211e-15 6.40771e-15 -7.73062e-11) (-3.73211e-15 6.40771e-15 -7.73062e-11) (-3.73211e-15 6.40771e-15 -7.73062e-11) (-3.73211e-15 6.40771e-15 -7.73062e-11) (-3.73211e-15 6.40771e-15 -7.73062e-11)
2300          (-2.95018e-16 4.85086e-16 -2.18282e-12) (-2.95018e-16 4.85086e-16 -2.18282e-12) (-2.95018e-16 4.85086e-16 -2.18282e-12) (-2.95018e-16 4.85086e-16 -2.18282e-12) (-2.95018e-16 4.85086e-16 -2.18282e-12) (-2.95018e-16 4.85086e-16 -2.18282e-12) (-2.70697e-16 4.59772e-16 -5.30403e-12) (-2.70697e-16 4.59772e-16 -5.30403e-12) (-2.70697e-16 4.59772e-16 -5.30403e-12) (-2.70697e-16 4.59772e-16 -5.30403e-12) (-2.70697e-16 4.59772e-16 -5.30403e-12)
2350          (-2.00643e-17 3.53062e-17 -1.50516e-13) (-2.00643e-17 3.53062e-17 -1.50516e-13) (-2.00643e-17 3.53062e-17 -1.50516e-13) (-2.00643e-17 3.53062e-17 -1.50516e-13) (-2.00643e-17 3.53062e-17 -1.50516e-13) (-2.00643e-17 3.53062e-17 -1.50516e-13) (-1.8873e-17 3.31949e-17 -3.65739e-13) (-1.8873e-17 3.31949e-17 -3.65739e-13) (-1.8873e-17 3.31949e-17 -3.65739e-13) (-1.8873e-17 3.31949e-17 -3.65739e-13) (-1.8873e-17 3.31949e-17 -3.65739e-13)
2400          (-1.30917e-18 1.22226e-19 -1.03796e-14) (-1.30917e-18 1.22226e-19 -1.03796e-14) (-1.30917e-18 1.22226e-19 -1.03796e-14) (-1.30917e-18 1.22226e-19 -1.03796e-14) (-1.30917e-18 1.22226e-19 -1.03796e-14) (-1.30917e-18 1.22226e-19 -1.03796e-14) (-2.30158e-20 1.29897e-18 -2.52203e-14) (-2.30158e-20 1.29897e-18 -2.52203e-14) (-2.30158e-20 1.29897e-18 -2.52203e-14) (-2.30158e-20 1.29897e-18 -2.52203e-14) (-2.30158e-20 1.29897e-18 -2.52203e-14)
2450          (-9.89211e-22 9.79327e-19 -7.14124e-16) (-9.89211e-22 9.79327e-19 -7.14124e-16) (-9.89211e-22 9.79327e-19 -7.14124e-16) (-9.89211e-22 9.79327e-19 -7.14124e-16) (-9.89211e-22 9.79327e-19 -7.14124e-16) (-9.89211e-22 9.79327e-19 -7.14124e-16) (-1.0002e-19 -9.89219e-21 -1.73675e-15) (-1.0002e-19 -9.89219e-21 -1.73675e-15) (-1.0002e-19 -9.89219e-21 -1.73675e-15) (-1.0002e-19 -9.89219e-21 -1.73675e-15) (-1.0002e-19 -9.89219e-21 -1.73675e-15)
2500          (-8.03424e-16 1.32234e-15 -5.94833e-12) (-8.03424e-16 1.32234e-15 -5.94833e-12) (-8.03424e-16 1.32234e-15 -5.94833e-12) (-8.03424e-16 1.32234e-15 -5.94833e-12) (-8.03424e-16 1.32234e-15 -5.94833e-12) (-8.03424e-16 1.32234e-15 -5.94833e-12) (-7.31562e-16 1.25582e-15 -1.45022e-11) (-7.31562e-16 1.25582e-15 -1.45022e-11) (-7.31562e-16 1.25582e-15 -1.45022e-11) (-7.31562e-16 1.25582e-15 -1.45022e-11) (-7.31562e-16 1.25582e-15 -1.45022e-11)
2550          (-5.57133e-17 9.11608e-17 -4.11391e-13) (-5.57133e-17 9.11608e-17 -4.11391e-13) (-5.57133e-17 9.11608e-17 -4.11391e-13) (-5.57133e-17 9.11608e-17 -4.11391e-13) (-5.57133e-17 9.11608e-17 -4.11391e-13) (-5.57133e-17 9.11608e-17 -4.11391e-13) (-5.20697e-17 8.6499e-17 -9.99631e-13) (-5.20697e-17 8.6499e-17 -9.99631e-13) (-5.20697e-17 8.6499e-17 -9.99631e-13) (-5.20697e-17 8.6499e-17 -9.99631e-13) (-5.20697e-17 8.6499e-17 -9.99631e-13)
2600          (-2.34057e-18 5.64124e-18 -2.83676e-14) (-2.34057e-18 5.64124e-18 -2.83676e-14) (-2.34057e-18 5.64124e-18 -2.83676e-14) (-2.34057e-18 5.64124e-18 -2.83676e-14) (-2.34057e-18 5.64124e-18 -2.83676e-14) (-2.34057e-18 5.64124e-18 -2.83676e-14) (-2.44347e-18 6.57131e-18 -6.89269e-14) (-2.44347e-18 6.57131e-18 -6.89269e-14) (-2.44347e-18 6.57131e-18 -6.89269e-14) (-2.44347e-18 6.57131e-18 -6.89269e-14) (-2.44347e-18 6.57131e-18 -6.89269e-14)
2650          (2.79766e-20 9.90208e-19 -1.95732e-15) (2.79766e-20 9.90208e-19 -1.95732e-15) (2.79766e-20 9.90208e-19 -1.95732e-15) (2.79766e-20 9.90208e-19 -1.95732e-15) (2.79766e-20 9.90208e-19 -1.95732e-15) (2.79766e-20 9.90208e-19 -1.95732e-15) (-2.09034e-19 -9.88218e-20 -4.75662e-15) (-2.09034e-19 -9.88218e-20 -4.75662e-15) (-2.09034e-19 -9.88218e-20 -4.75662e-15) (-2.09034e-19 -9.88218e-20 -4.75662e-15) (-2.09034e-19 -9.88218e-20 -4.75662e-15)
2700          (4.55208e-16 -7.63891e-16 3.47769e-12) (4.55208e-16 -7.63891e-16 3.47769e-12) (4.55208e-16 -7.63891e-16 3.47769e-12) (4.55208e-16 -7.63891e-16 3.47769e-12) (4.55208e-16 -7.63891e-16 3.47769e-12) (4.55208e-16 -7.63891e-16 3.47769e-12) (4.24132e-16 -7.37222e-16 7.61643e-12) (4.24132e-16 -7.37222e-16 7.61643e-12) (4.24132e-16 -7.37222e-16 7.61643e-12) (4.24132e-16 -7.37222e-16 7.61643e-12) (4.24132e-16 -7.37222e-16 7.61643e-12)
2750          (2.8848e-17 -4.68316e-17 2.1418e-13) (2.8848e-17 -4.68316e-17 2.1418e-13) (2.8848e-17 -4.68316e-17 2.1418e-13) (2.8848e-17 -4.68316e-17 2.1418e-13) (2.8848e-17 -4.68316e-17 2.1418e-13) (2.8848e-17 -4.68316e-17 2.1418e-13) (2.88458e-17 -4.44313e-17 5.2042e-13) (2.88458e-17 -4.44313e-17 5.2042e-13) (2.88458e-17 -4.44313e-17 5.2042e-13) (2.88458e-17 -4.44313e-17 5.2042e-13) (2.88458e-17 -4.44313e-17 5.2042e-13)
2800          (4.21683e-18 -4.42051e-18 1.47654e-14) (4.21683e-18 -4.42051e-18 1.47654e-14) (4.21683e-18 -4.42051e-18 1.47654e-14) (4.21683e-18 -4.42051e-18 1.47654e-14) (4.21683e-18 -4.42051e-18 1.47654e-14) (4.21683e-18 -4.42051e-18 1.47654e-14) (4.44067e-18 -2.24063e-18 3.58806e-14) (4.44067e-18 -2.24063e-18 3.58806e-14) (4.44067e-18 -2.24063e-18 3.58806e-14) (4.44067e-18 -2.24063e-18 3.58806e-14) (4.44067e-18 -2.24063e-18 3.58806e-14)
2850          (2.17806e-19 -2.00042e-20 1.01747e-15) (2.17806e-19 -2.00042e-20 1.01747e-15) (2.17806e-19 -2.00042e-20 1.01747e-15) (2.17806e-19 -2.00042e-20 1.01747e-15) (2.17806e-19 -2.00042e-20 1.01747e-15) (2.17806e-19 -2.00042e-20 1.01747e-15) (-1.9984e-18 -2.19824e-18 2.47411e-15) (-1.9984e-18 -2.19824e-18 2.47411e-15) (-1.9984e-18 -2.19824e-18 2.47411e-15) (-1.9984e-18 -2.19824e-18 2.47411e-15) (-1.9984e-18 -2.19824e-18 2.47411e-15)
2900          (1.49002e-15 -2.45833e-15 1.10338e-11) (1.49002e-15 -2.45833e-15 1.10338e-11) (1.49002e-15 -2.45833e-15 1.10338e-11) (1.49002e-15 -2.45833e-15 1.10338e-11) (1.49002e-15 -2.45833e-15 1.10338e-11) (1.49002e-15 -2.45833e-15 1.10338e-11) (1.35874e-15 -2.32732e-15 2.73112e-11) (1.35874e-15 -2.32732e-15 2.73112e-11) (1.35874e-15 -2.32732e-15 2.73112e-11) (1.35874e-15 -2.32732e-15 2.73112e-11) (1.35874e-15 -2.32732e-15 2.73112e-11)
2950          (1.04363e-16 -1.73176e-16 7.73471e-13) (1.04363e-16 -1.73176e-16 7.73471e-13) (1.04363e-16 -1.73176e-16 7.73471e-13) (1.04363e-16 -1.73176e-16 7.73471e-13) (1.04363e-16 -1.73176e-16 7.73471e-13) (1.04363e-16 -1.73176e-16 7.73471e-13) (9.54816e-17 -1.64314e-16 1.87944e-12) (9.54816e-17 -1.64314e-16 1.87944e-12) (9.54816e-17 -1.64314e-16 1.87944e-12) (9.54816e-17 -1.64314e-16 1.87944e-12) (9.54816e-17 -1.64314e-16 1.87944e-12)
3000          (4.68494e-18 -1.09046e-17 5.33335e-14) (4.68494e-18 -1.09046e-17 5.33335e-14) (4.68494e-18 -1.09046e-17 5.33335e-14) (4.68494e-18 -1.09046e-17 5.33335e-14) (4.68494e-18 -1.09046e-17 5.33335e-14) (4.68494e-18 -1.09046e-17 5.33335e-14) (4.88276e-18 -9.10183e-18 1.29596e-13) (4.88276e-18 -9.10183e-18 1.29596e-13) (4.88276e-18 -9.10183e-18 1.29596e-13) (4.88276e-18 -9.10183e-18 1.29596e-13) (4.88276e-18 -9.10183e-18 1.29596e-13)
3050          (1.95864e-23 -1.99845e-21 3.67846e-15) (1.95864e-23 -1.99845e-21 3.67846e-15) (1.95864e-23 -1.99845e-21 3.67846e-15) (1.95864e-23 -1.99845e-21 3.67846e-15) (1.95864e-23 -1.99845e-21 3.67846e-15) (1.95864e-23 -1.99845e-21 3.67846e-15) (2.01841e-20 -2.01661e-18 8.93293e-15) (2.01841e-20 -2.01661e-18 8.93293e-15) (2.01841e-20 -2.01661e-18 8.93293e-15) (2.01841e-20 -2.01661e-18 8.93293e-15) (2.01841e-20 -2.01661e-18 8.93293e-15)
3100          (-1.99644e-18 -2.01843e-22 2.51657e-16) (-1.99644e-18 -2.01843e-22 2.51657e-16) (-1.99644e-18 -2.01843e-22 2.51657e-16) (-1.99644e-18 -2.01843e-22 2.51657e-16) (-1.99644e-18 -2.01843e-22 2.51657e-16) (-1.99644e-18 -2.01843e-22 2.51657e-16) (2.19804e-19 -1.97842e-18 6.13444e-16) (2.19804e-19 -1.97842e-18 6.13444e-16) (2.19804e-19 -1.97842e-18 6.13444e-16) (2.19804e-19 -1.97842e-18 6.13444e-16) (2.19804e-19 -1.97842e-18 6.13444e-16)
3150          (1.06786e-16 -1.77659e-16 8.03814e-13) (1.06786e-16 -1.77659e-16 8.03814e-13) (1.06786e-16 -1.77659e-16 8.03814e-13) (1.06786e-16 -1.77659e-16 8.03814e-13) (1.06786e-16 -1.77659e-16 8.03814e-13) (1.06786e-16 -1.77659e-16 8.03814e-13) (9.99605e-17 -1.68957e-16 1.95455e-12) (9.99605e-17 -1.68957e-16 1.95455e-12) (9.99605e-17 -1.68957e-16 1.95455e-12) (9.99605e-17 -1.68957e-16 1.95455e-12) (9.99605e-17 -1.68957e-16 1.95455e-12)
3200          (6.66334e-18 -1.33045e-17 5.54612e-14) (6.66334e-18 -1.33045e-17 5.54612e-14) (6.66334e-18 -1.33045e-17 5.54612e-14) (6.66334e-18 -1.33045e-17 5.54612e-14) (6.66334e-18 -1.33045e-17 5.54612e-14) (6.66334e-18 -1.33045e-17 5.54612e-14) (6.88118e-18 -1.11003e-17 1.34761e-13) (6.88118e-18 -1.11003e-17 1.34761e-13) (6.88118e-18 -1.11003e-17 1.34761e-13) (6.88118e-18 -1.11003e-17 1.34761e-13) (6.88118e-18 -1.11003e-17 1.34761e-13)
3250          (2.19824e-18 -1.98317e-25 3.82417e-15) (2.19824e-18 -1.98317e-25 3.82417e-15) (2.19824e-18 -1.98317e-25 3.82417e-15) (2.19824e-18 -1.98317e-25 3.82417e-15) (2.19824e-18 -1.98317e-25 3.82417e-15) (2.19824e-18 -1.98317e-25 3.82417e-15) (4.19464e-20 -2.19826e-18 9.29495e-15) (4.19464e-20 -2.19826e-18 9.29495e-15) (4.19464e-20 -2.19826e-18 9.29495e-15) (4.19464e-20 -2.19826e-18 9.29495e-15) (4.19464e-20 -2.19826e-18 9.29495e-15)